Created by: LAMMPS for multicomponent system, Feb 2019

    14  atoms
    14  bonds
    21  angles
    23  dihedrals
    5  impropers

      14  atom types
      14  bond types
      21  angle types
      23  dihedral types
       5  improper types

    -2.65   109.23  xlo xhi
    -2.65   109.23  ylo yhi
    -2.65   109.23  zlo zhi

 Atoms

   1       1     1 -0.065656 -0.065656      60.132      83.233      74.187
   2       1     2 -0.694735 -0.694735      57.951      81.167      73.960
   3       1     3  0.096301  0.096301      58.552      81.241      75.208
   4       1     4 -0.007202 -0.007202      59.622      82.131      75.467
   5       1     5 -0.131049 -0.131049      58.162      80.386      76.265
   6       1     6 -0.119838 -0.119838      60.274      82.167      76.701
   7       1     7 -0.117192 -0.117192      58.810      80.418      77.501
   8       1     8 -0.132533 -0.132533      59.871      81.306      77.729
   9       1     9  0.116003  0.116003      57.338      79.686      76.092
  10       1    10  0.122579  0.122579      61.093      82.876      76.847
  11       1    11  0.117184  0.117184      58.480      79.741      78.294
  12       1    12  0.116237  0.116237      60.380      81.334      78.695
  13       1    13  0.358986  0.358986      57.006      80.793      73.953
  14       1    14  0.340915  0.340915      58.068      81.990      73.372

 Bonds

    1       1       1       4 # exc_1_4
    2       2       2       3 # exc_2_3
    3       3       2      13 # exc_2_13
    4       4       2      14 # exc_2_14
    5       5       3       4 # exc_3_4
    6       6       3       5 # exc_3_5
    7       7       4       6 # exc_4_6
    8       8       5       7 # exc_5_7
    9       9       5       9 # exc_5_9
   10      10       6       8 # exc_6_8
   11      11       6      10 # exc_6_10
   12      12       7       8 # exc_7_8
   13      13       7      11 # exc_7_11
   14      14       8      12 # exc_8_12

 Angles

    1       1      14       2      13	#
    2       2       3       2      13	#
    3       3       3       2      14	#
    4       4       5       3       2	#
    5       5       4       3       2	#
    6       6       4       3       5	#
    7       7       3       4       6	#
    8       8       1       4       6	#
    9       9       1       4       3	#
   10      10       7       5       9	#
   11      11       3       5       9	#
   12      12       3       5       7	#
   13      13       4       6      10	#
   14      14       8       6      10	#
   15      15       8       6       4	#
   16      16       5       7      11	#
   17      17       8       7      11	#
   18      18       8       7       5	#
   19      19       6       8      12	#
   20      20       7       8      12	#
   21      21       7       8       6	#

 Dihedrals

    1       1       4       3       5       9	#
    2       2       4       3       5       7	#
    3       3       5       3       4       1	#
    4       4       3       4       6      10	#
    5       5       1       4       6      10	#
    6       6       3       4       6       8	#
    7       7       1       4       6       8	#
    8       8       9       5       7      11	#
    9       9       3       5       7      11	#
   10      10       9       5       7       8	#
   11      11       3       5       7       8	#
   12      12      10       6       8      12	#
   13      13       4       6       8      12	#
   14      14      10       6       8       7	#
   15      15       4       6       8       7	#
   16      16      11       7       8      12	#
   17      17       5       7       8      12	#
   18      18      11       7       8       6	#
   19      19       5       7       8       6	#
   20      20      13       2       3       5	#
   21      21      14       2       3       5	#
   22      22      13       2       3       4	#
   23      23      14       2       3       4	#

 Impropers

    1        1        4        1        6        3 #
    2        2        5        3        9        7 #
    3        3        6        8       10        4 #
    4        4        7        8       11        5 #
    5        5        8        7       12        6 #
