Created by: LAMMPS for multicomponent system, Feb 2019

       9  atoms
       9  bonds
      13  angles
      14  dihedrals
       0  impropers

       9  atom types
       9  bond types
      13  angle types
      14  dihedral types
       0  improper types

    -2.65    94.54  xlo xhi
    -2.65    94.54  ylo yhi
    -2.65    94.54  zlo zhi

 Atoms

   1       1     1  0.040372  0.040372      51.172      71.222      64.250
   2       1     2 -0.138339 -0.138339      50.628      69.720      66.276
   3       1     3 -0.138339 -0.138339      51.730      70.539      66.675
   4       1     4 -0.134165 -0.134165      50.215      69.975      64.987
   5       1     5 -0.134165 -0.134165      52.137      71.404      65.682
   6       1     6  0.123304  0.123304      50.159      68.971      66.917
   7       1     7  0.123304  0.123304      52.205      70.492      67.657
   8       1     8  0.129014  0.129014      49.408      69.507      64.426
   9       1     9  0.129014  0.129014      52.942      72.135      65.705

 Bonds

    1       1       1       4 # exc_1_4
    2       2       1       5 # exc_1_5
    3       3       2       3 # exc_2_3
    4       4       2       4 # exc_2_4
    5       5       2       6 # exc_2_6
    6       6       3       5 # exc_3_5
    7       7       3       7 # exc_3_7
    8       8       4       8 # exc_4_8
    9       9       5       9 # exc_5_9

 Angles

    1       1       4       1       5	#
    2       2       4       2       6	#
    3       3       3       2       6	#
    4       4       3       2       4	#
    5       5       5       3       7	#
    6       6       2       3       7	#
    7       7       2       3       5	#
    8       8       2       4       8	#
    9       9       1       4       8	#
   10      10       1       4       2	#
   11      11       3       5       9	#
   12      12       1       5       9	#
   13      13       1       5       3	#

 Dihedrals

    1       1       4       1       5       9	#
    2       2       4       1       5       3	#
    3       3       5       1       4       8	#
    4       4       5       1       4       2	#
    5       5       6       2       4       8	#
    6       6       3       2       4       8	#
    7       7       6       2       4       1	#
    8       8       6       2       3       7	#
    9       9       4       2       3       7	#
   10      10       6       2       3       5	#
   11      11       4       2       3       5	#
   12      12       7       3       5       9	#
   13      13       2       3       5       9	#
   14      14       7       3       5       1	#
