Created by: LAMMPS for multicomponent system, Feb 2019

      15  atoms
      15  bonds
      24  angles
      30  dihedrals
       6  impropers

      15  atom types
      15  bond types
      24  angle types
      30  dihedral types
       6  improper types

    -2.65    98.85  xlo xhi
    -2.65    98.85  ylo yhi
    -2.65    98.85  zlo zhi

 Atoms

   1       1     1 -0.019847 -0.019847      53.556      73.554      69.163
   2       1     2 -0.118916 -0.118916      52.626      73.176      68.176
   3       1     3 -0.118915 -0.118915      54.487      74.561      68.848
   4       1     4 -0.263096 -0.263096      53.573      72.877      70.513
   5       1     5 -0.116711 -0.116711      52.628      73.781      66.913
   6       1     6 -0.116711 -0.116711      54.494      75.169      67.586
   7       1     7 -0.120510 -0.120510      53.564      74.780      66.612
   8       1     8  0.111077  0.111077      51.889      72.399      68.406
   9       1     9  0.111080  0.111080      55.214      74.873      69.606
  10       1    10  0.102876  0.102876      53.942      73.554      71.299
  11       1    11  0.102872  0.102872      52.568      72.530      70.803
  12       1    12  0.105186  0.105186      54.234      71.992      70.507
  13       1    13  0.113966  0.113966      51.894      73.474      66.162
  14       1    14  0.113966  0.113966      55.225      75.953      67.365
  15       1    15  0.113682  0.113682      53.566      75.256      65.628

 Bonds

    1       1       1       2 # exc_1_2
    2       2       1       3 # exc_1_3
    3       3       1       4 # exc_1_4
    4       4       2       5 # exc_2_5
    5       5       2       8 # exc_2_8
    6       6       3       6 # exc_3_6
    7       7       3       9 # exc_3_9
    8       8       4      10 # exc_4_10
    9       9       4      11 # exc_4_11
   10      10       4      12 # exc_4_12
   11      11       5       7 # exc_5_7
   12      12       5      13 # exc_5_13
   13      13       6       7 # exc_6_7
   14      14       6      14 # exc_6_14
   15      15       7      15 # exc_7_15

 Angles

    1       1       3       1       2	#
    2       2       4       1       2	#
    3       3       4       1       3	#
    4       4       5       2       8	#
    5       5       1       2       8	#
    6       6       1       2       5	#
    7       7       6       3       9	#
    8       8       1       3       9	#
    9       9       1       3       6	#
   10      10      10       4      11	#
   11      11      12       4      11	#
   12      12      12       4      10	#
   13      13       1       4      11	#
   14      14       1       4      10	#
   15      15       1       4      12	#
   16      16       2       5      13	#
   17      17       7       5      13	#
   18      18       7       5       2	#
   19      19       3       6      14	#
   20      20       7       6      14	#
   21      21       7       6       3	#
   22      22       5       7      15	#
   23      23       6       7      15	#
   24      24       6       7       5	#

 Dihedrals

    1       1       3       1       2       8	#
    2       2       4       1       2       8	#
    3       3       3       1       2       5	#
    4       4       4       1       2       5	#
    5       5       2       1       3       9	#
    6       6       4       1       3       9	#
    7       7       2       1       3       6	#
    8       8       4       1       3       6	#
    9       9       8       2       5      13	#
   10      10       1       2       5      13	#
   11      11       8       2       5       7	#
   12      12       1       2       5       7	#
   13      13       9       3       6      14	#
   14      14       1       3       6      14	#
   15      15       9       3       6       7	#
   16      16       1       3       6       7	#
   17      17      13       5       7      15	#
   18      18       2       5       7      15	#
   19      19      13       5       7       6	#
   20      20       2       5       7       6	#
   21      21      14       6       7      15	#
   22      22       3       6       7      15	#
   23      23      14       6       7       5	#
   24      24       3       6       7       5	#
   25      25       2       1       4      11	#
   26      26       3       1       4      11	#
   27      27       2       1       4      10	#
   28      28       3       1       4      10	#
   29      29       2       1       4      12	#
   30      30       3       1       4      12	#

 Impropers

    1        1        1        4        2        3 #
    2        2        2        1        8        5 #
    3        3        3        1        9        6 #
    4        4        5        7       13        2 #
    5        5        6        7       14        3 #
    6        6        7        6       15        5 #
