Created by: LAMMPS for multicomponent system, Feb 2019

       3  atoms
       2  bonds
       1  angles
       0  dihedrals
       0  impropers

       3  atom types
       2  bond types
       1  angle types
       0  dihedral types
       0  improper types

    -2.65     83.8  xlo xhi
    -2.65     83.8  ylo yhi
    -2.65     83.8  zlo zhi

 Atoms

   1       1     1 -0.73030750 -0.73030750       4.004       7.834       7.562 
   2       1     2  0.36515375  0.36515375       4.891       7.452       7.442 
   3       1     3  0.36515375  0.36515375       3.983       8.035       8.514 

 Bonds

    1       1       1       2 # exc_1_2
    2       2       1       3 # exc_1_3

 Angles

    1       1       3       1       2	#

