Created by: LAMMPS for multicomponent system, Feb 2019

    3500  atoms
    3500  bonds
    5250  angles
    5750  dihedrals
    1250  impropers

      14  atom types
      14  bond types
      21  angle types
      23  dihedral types
       5  improper types

    -2.65   109.23  xlo xhi
    -2.65   109.23  ylo yhi
    -2.65   109.23  zlo zhi

 Atoms

   1       1     1 -0.065656 -0.065656      60.132      83.233      74.187
   2       1     2 -0.694735 -0.694735      57.951      81.167      73.960
   3       1     3  0.096301  0.096301      58.552      81.241      75.208
   4       1     4 -0.007202 -0.007202      59.622      82.131      75.467
   5       1     5 -0.131049 -0.131049      58.162      80.386      76.265
   6       1     6 -0.119838 -0.119838      60.274      82.167      76.701
   7       1     7 -0.117192 -0.117192      58.810      80.418      77.501
   8       1     8 -0.132533 -0.132533      59.871      81.306      77.729
   9       1     9  0.116003  0.116003      57.338      79.686      76.092
  10       1    10  0.122579  0.122579      61.093      82.876      76.847
  11       1    11  0.117184  0.117184      58.480      79.741      78.294
  12       1    12  0.116237  0.116237      60.380      81.334      78.695
  13       1    13  0.358986  0.358986      57.006      80.793      73.953
  14       1    14  0.340915  0.340915      58.068      81.990      73.372
  15       2     1 -0.065656 -0.065656      86.078     103.684       8.880
  16       2     2 -0.694735 -0.694735      85.063     100.900       8.332
  17       2     3  0.096301  0.096301      85.374     101.636       7.200
  18       2     4 -0.007202 -0.007202      85.824     102.976       7.283
  19       2     5 -0.131049 -0.131049      85.200     101.101       5.902
  20       2     6 -0.119838 -0.119838      86.079     103.745       6.146
  21       2     7 -0.117192 -0.117192      85.454     101.864       4.761
  22       2     8 -0.132533 -0.132533      85.894     103.191       4.873
  23       2     9  0.116003  0.116003      84.850     100.068       5.808
  24       2    10  0.122579  0.122579      86.427     104.774       6.269
  25       2    11  0.117184  0.117184      85.307     101.415       3.775
  26       2    12  0.116237  0.116237      86.094     103.792       3.982
  27       2    13  0.358986  0.358986      85.099      99.890       8.219
  28       2    14  0.340915  0.340915      85.491     101.229       9.196
  29       3     1 -0.065656 -0.065656      39.774       1.167      47.417
  30       3     2 -0.694735 -0.694735      39.990       4.157      47.730
  31       3     3  0.096301  0.096301      40.193       3.435      48.897
  32       3     4 -0.007202 -0.007202      40.084       2.024      48.928
  33       3     5 -0.131049 -0.131049      40.459       4.082      50.126
  34       3     6 -0.119838 -0.119838      40.224       1.295      50.111
  35       3     7 -0.117192 -0.117192      40.600       3.359      51.312
  36       3     8 -0.132533 -0.132533      40.483       1.962      51.315
  37       3     9  0.116003  0.116003      40.546       5.174      50.132
  38       3    10  0.122579  0.122579      40.133       0.207      50.077
  39       3    11  0.117184  0.117184      40.806       3.895      52.243
  40       3    12  0.116237  0.116237      40.593       1.392      52.241
  41       3    13  0.358986  0.358986      40.422       5.077      47.706
  42       3    14  0.340915  0.340915      40.108       3.629      46.867
  43       4     1 -0.065656 -0.065656     108.947     101.239      88.526
  44       4     2 -0.694735 -0.694735     106.101     101.690      87.647
  45       4     3  0.096301  0.096301     106.985     101.396      86.620
  46       4     4 -0.007202 -0.007202     108.366     101.199      86.860
  47       4     5 -0.131049 -0.131049     106.556     101.339      85.273
  48       4     6 -0.119838 -0.119838     109.273     100.964      85.825
  49       4     7 -0.117192 -0.117192     107.459     101.105      84.233
  50       4     8 -0.132533 -0.132533     108.823     100.917      84.499
  51       4     9  0.116003  0.116003     105.494     101.490      85.057
  52       4    10  0.122579  0.122579     110.328     100.817      86.068
  53       4    11  0.117184  0.117184     107.089     101.068      83.205
  54       4    12  0.116237  0.116237     109.532     100.734      83.689
  55       4    13  0.358986  0.358986     105.126     101.467      87.460
  56       4    14  0.340915  0.340915     106.410     101.418      88.578
  57       5     1 -0.065656 -0.065656      19.469      25.105      51.530
  58       5     2 -0.694735 -0.694735      18.856      22.572      50.015
  59       5     3  0.096301  0.096301      20.189      22.732      50.363
  60       5     4 -0.007202 -0.007202      20.649      23.887      51.040
  61       5     5 -0.131049 -0.131049      21.164      21.773      50.003
  62       5     6 -0.119838 -0.119838      21.999      24.085      51.338
  63       5     7 -0.117192 -0.117192      22.515      21.964      50.298
  64       5     8 -0.132533 -0.132533      22.944      23.120      50.966
  65       5     9  0.116003  0.116003      20.837      20.870      49.476
  66       5    10  0.122579  0.122579      22.298      24.994      51.864
  67       5    11  0.117184  0.117184      23.239      21.199      50.004
  68       5    12  0.116237  0.116237      24.000      23.274      51.198
  69       5    13  0.358986  0.358986      18.556      21.612      49.870
  70       5    14  0.340915  0.340915      18.197      23.128      50.557
  71       6     1 -0.065656 -0.065656      10.896     109.364       9.578
  72       6     2 -0.694735 -0.694735       8.258     110.607       8.816
  73       6     3  0.096301  0.096301       8.719     109.641       7.936
  74       6     4 -0.007202 -0.007202       9.962     108.991       8.127
  75       6     5 -0.131049 -0.131049       7.994     109.301       6.770
  76       6     6 -0.119838 -0.119838      10.463     108.062       7.212
  77       6     7 -0.117192 -0.117192       8.489     108.373       5.851
  78       6     8 -0.132533 -0.132533       9.726     107.748       6.063
  79       6     9  0.116003  0.116003       7.030     109.790       6.595
  80       6    10  0.122579  0.122579      11.427     107.589       7.411
  81       6    11  0.117184  0.117184       7.899     108.137       4.961
  82       6    12  0.116237  0.116237      10.117     107.021       5.347
  83       6    13  0.358986  0.358986       7.253     110.754       8.815
  84       6    14  0.340915  0.340915       8.664     110.573       9.750
  85       7     1 -0.065656 -0.065656     104.983      23.337      12.564
  86       7     2 -0.694735 -0.694735     102.981      25.536      12.081
  87       7     3  0.096301  0.096301     104.308      25.927      11.977
  88       7     4 -0.007202 -0.007202     105.371      25.023      12.217
  89       7     5 -0.131049 -0.131049     104.661      27.265      11.685
  90       7     6 -0.119838 -0.119838     106.708      25.423      12.176
  91       7     7 -0.117192 -0.117192     105.996      27.671      11.643
  92       7     8 -0.132533 -0.132533     107.030      26.756      11.889
  93       7     9  0.116003  0.116003     103.859      27.987      11.498
  94       7    10  0.122579  0.122579     107.489      24.683      12.366
  95       7    11  0.117184  0.117184     106.229      28.715      11.414
  96       7    12  0.116237  0.116237     108.075      27.069      11.856
  97       7    13  0.358986  0.358986     102.317      26.108      11.566
  98       7    14  0.340915  0.340915     102.814      24.536      11.990
  99       8     1 -0.065656 -0.065656      28.312      94.897      48.208
 100       8     2 -0.694735 -0.694735      27.379      92.035      48.077
 101       8     3  0.096301  0.096301      27.158      92.770      46.922
 102       8     4 -0.007202 -0.007202      27.500      94.141      46.836
 103       8     5 -0.131049 -0.131049      26.524      92.197      45.795
 104       8     6 -0.119838 -0.119838      27.223      94.904      45.699
 105       8     7 -0.117192 -0.117192      26.245      92.954      44.656
 106       8     8 -0.132533 -0.132533      26.590      94.312      44.598
 107       8     9  0.116003  0.116003      26.246      91.139      45.835
 108       8    10  0.122579  0.122579      27.511      95.958      45.686
 109       8    11  0.117184  0.117184      25.754      92.476      43.804
 110       8    12  0.116237  0.116237      26.374      94.909      43.709
 111       8    13  0.358986  0.358986      27.444      91.029      47.948
 112       8    14  0.340915  0.340915      28.088      92.412      48.703
 113       9     1 -0.065656 -0.065656      35.278      49.696     105.934
 114       9     2 -0.694735 -0.694735      33.256      47.683     106.904
 115       9     3  0.096301  0.096301      33.847      48.440     107.905
 116       9     4 -0.007202 -0.007202      34.848      49.400     107.620
 117       9     5 -0.131049 -0.131049      33.519      48.244     109.267
 118       9     6 -0.119838 -0.119838      35.493      50.120     108.627
 119       9     7 -0.117192 -0.117192      34.160      48.962     110.278
 120       9     8 -0.132533 -0.132533      35.151      49.904     109.968
 121       9     9  0.116003  0.116003      32.750      47.506     109.517
 122       9    10  0.122579  0.122579      36.256      50.851     108.350
 123       9    11  0.117184  0.117184      33.879      48.783     111.320
 124       9    12  0.116237  0.116237      35.656      50.467     110.757
 125       9    13  0.358986  0.358986      32.340      47.302     107.129
 126       9    14  0.340915  0.340915      33.313      48.081     105.969
 127      10     1 -0.065656 -0.065656      10.827      64.915      19.287
 128      10     2 -0.694735 -0.694735      13.663      64.226      18.534
 129      10     3  0.096301  0.096301      13.474      65.538      18.942
 130      10     4 -0.007202 -0.007202      12.194      66.032      19.290
 131      10     5 -0.131049 -0.131049      14.545      66.461      18.974
 132      10     6 -0.119838 -0.119838      11.984      67.368      19.642
 133      10     7 -0.117192 -0.117192      14.343      67.797      19.325
 134      10     8 -0.132533 -0.132533      13.063      68.261      19.660
 135      10     9  0.116003  0.116003      15.546      66.106      18.707
 136      10    10  0.122579  0.122579      10.975      67.695      19.903
 137      10    11  0.117184  0.117184      15.196      68.481      19.338
 138      10    12  0.116237  0.116237      12.900      69.306      19.935
 139      10    13  0.358986  0.358986      14.606      63.865      18.649
 140      10    14  0.340915  0.340915      12.938      63.572      18.823
 141      11     1 -0.065656 -0.065656      38.870      67.647      43.155
 142      11     2 -0.694735 -0.694735      38.926      65.072      44.720
 143      11     3  0.096301  0.096301      39.488      66.159      45.372
 144      11     4 -0.007202 -0.007202      39.578      67.431      44.757
 145      11     5 -0.131049 -0.131049      40.052      66.032      46.663
 146      11     6 -0.119838 -0.119838      40.199      68.515      45.382
 147      11     7 -0.117192 -0.117192      40.674      67.112      47.293
 148      11     8 -0.132533 -0.132533      40.754      68.360      46.659
 149      11     9  0.116003  0.116003      39.999      65.059      47.161
 150      11    10  0.122579  0.122579      40.239      69.475      44.862
 151      11    11  0.117184  0.117184      41.099      66.975      48.291
 152      11    12  0.116237  0.116237      41.239      69.208      47.149
 153      11    13  0.358986  0.358986      38.583      64.331      45.324
 154      11    14  0.340915  0.340915      38.291      65.303      43.958
 155      12     1 -0.065656 -0.065656     101.517      99.334      51.532
 156      12     2 -0.694735 -0.694735     100.826     101.939      52.881
 157      12     3  0.096301  0.096301     101.521     101.040      53.677
 158      12     4 -0.007202 -0.007202     101.883      99.755      53.206
 159      12     5 -0.131049 -0.131049     101.847     101.345      55.019
 160      12     6 -0.119838 -0.119838     102.527      98.821      54.021
 161      12     7 -0.117192 -0.117192     102.491     100.416      55.838
 162      12     8 -0.132533 -0.132533     102.835      99.148      55.348
 163      12     9  0.116003  0.116003     101.576     102.331      55.410
 164      12    10  0.122579  0.122579     102.786      97.845      53.606
 165      12    11  0.117184  0.117184     102.727     100.688      56.871
 166      12    12  0.116237  0.116237     103.338      98.418      55.986
 167      12    13  0.358986  0.358986     100.919     102.916      53.144
 168      12    14  0.340915  0.340915     100.899     101.777      51.878
 169      13     1 -0.065656 -0.065656     103.936      54.233      81.616
 170      13     2 -0.694735 -0.694735     106.903      53.703      81.615
 171      13     3  0.096301  0.096301     106.417      54.277      82.780
 172      13     4 -0.007202 -0.007202     105.053      54.628      82.925
 173      13     5 -0.131049 -0.131049     107.275      54.595      83.858
 174      13     6 -0.119838 -0.119838     104.567      55.264      84.070
 175      13     7 -0.117192 -0.117192     106.796      55.231      85.005
 176      13     8 -0.132533 -0.132533     105.441      55.571      85.121
 177      13     9  0.116003  0.116003     108.336      54.338      83.773
 178      13    10  0.122579  0.122579     103.504      55.509      84.129
 179      13    11  0.117184  0.117184     107.491      55.460      85.818
 180      13    12  0.116237  0.116237     105.062      56.068      86.016
 181      13    13  0.358986  0.358986     107.764      53.173      81.717
 182      13    14  0.340915  0.340915     106.206      53.240      81.036
 183      14     1 -0.065656 -0.065656      91.052      45.711      89.828
 184      14     2 -0.694735 -0.694735      88.955      44.406      88.101
 185      14     3  0.096301  0.096301      88.515      44.788      89.359
 186      14     4 -0.007202 -0.007202      89.387      45.376      90.307
 187      14     5 -0.131049 -0.131049      87.184      44.552      89.777
 188      14     6 -0.119838 -0.119838      88.968      45.705      91.598
 189      14     7 -0.117192 -0.117192      86.759      44.879      91.065
 190      14     8 -0.132533 -0.132533      87.645      45.456      91.986
 191      14     9  0.116003  0.116003      86.488      44.096      89.065
 192      14    10  0.122579  0.122579      89.683      46.159      92.287
 193      14    11  0.117184  0.117184      85.722      44.681      91.351
 194      14    12  0.116237  0.116237      87.316      45.714      92.996
 195      14    13  0.358986  0.358986      88.233      44.336      87.389
 196      14    14  0.340915  0.340915      89.801      44.871      87.778
 197      15     1 -0.065656 -0.065656      40.677      91.594      95.176
 198      15     2 -0.694735 -0.694735      39.637      89.488      93.288
 199      15     3  0.096301  0.096301      40.132      88.998      94.488
 200      15     4 -0.007202 -0.007202      40.696      89.853      95.465
 201      15     5 -0.131049 -0.131049      40.151      87.612      94.765
 202      15     6 -0.119838 -0.119838      41.254      89.362      96.648
 203      15     7 -0.117192 -0.117192      40.707      87.115      95.945
 204      15     8 -0.132533 -0.132533      41.263      87.984      96.895
 205      15     9  0.116003  0.116003      39.724      86.926      94.025
 206      15    10  0.122579  0.122579      41.673      90.068      97.368
 207      15    11  0.117184  0.117184      40.703      86.036      96.124
 208      15    12  0.116237  0.116237      41.699      87.599      97.819
 209      15    13  0.358986  0.358986      38.955      88.895      92.824
 210      15    14  0.340915  0.340915      39.383      90.474      93.294
 211      16     1 -0.065656 -0.065656     103.592      41.608       1.313
 212      16     2 -0.694735 -0.694735     101.977      43.765       2.662
 213      16     3  0.096301  0.096301     103.298      44.103       2.409
 214      16     4 -0.007202 -0.007202     104.200      43.185       1.819
 215      16     5 -0.131049 -0.131049     103.821      45.362       2.784
 216      16     6 -0.119838 -0.119838     105.547      43.495       1.618
 217      16     7 -0.117192 -0.117192     105.166      45.678       2.586
 218      16     8 -0.132533 -0.132533     106.040      44.748       2.003
 219      16     9  0.116003  0.116003     103.146      46.090       3.246
 220      16    10  0.122579  0.122579     106.199      42.750       1.156
 221      16    11  0.117184  0.117184     105.534      46.662       2.890
 222      16    12  0.116237  0.116237     107.094      44.991       1.847
 223      16    13  0.358986  0.358986     101.334      44.549       2.742
 224      16    14  0.340915  0.340915     101.611      42.994       2.107
 225      17     1 -0.065656 -0.065656      30.573      69.319       1.141
 226      17     2 -0.694735 -0.694735      28.179      70.808       2.204
 227      17     3  0.096301  0.096301      29.128      70.478       3.160
 228      17     4 -0.007202 -0.007202      30.291      69.741       2.831
 229      17     5 -0.131049 -0.131049      28.947      70.812       4.523
 230      17     6 -0.119838 -0.119838      31.220      69.351       3.798
 231      17     7 -0.117192 -0.117192      29.872      70.425       5.494
 232      17     8 -0.132533 -0.132533      31.014      69.691       5.141
 233      17     9  0.116003  0.116003      28.055      71.380       4.806
 234      17    10  0.122579  0.122579      32.101      68.785       3.488
 235      17    11  0.117184  0.117184      29.698      70.702       6.538
 236      17    12  0.116237  0.116237      31.740      69.386       5.898
 237      17    13  0.358986  0.358986      27.591      71.606       2.431
 238      17    14  0.340915  0.340915      28.513      70.808       1.243
 239      18     1 -0.065656 -0.065656      24.004      28.821      69.565
 240      18     2 -0.694735 -0.694735      23.048      31.506      70.542
 241      18     3  0.096301  0.096301      24.253      31.534      69.857
 242      18     4 -0.007202 -0.007202      24.860      30.352      69.369
 243      18     5 -0.131049 -0.131049      24.963      32.742      69.664
 244      18     6 -0.119838 -0.119838      26.103      30.363      68.734
 245      18     7 -0.117192 -0.117192      26.206      32.761      69.029
 246      18     8 -0.132533 -0.132533      26.787      31.573      68.560
 247      18     9  0.116003  0.116003      24.518      33.672      70.033
 248      18    10  0.122579  0.122579      26.524      29.421      68.375
 249      18    11  0.117184  0.117184      26.725      33.715      68.899
 250      18    12  0.116237  0.116237      27.760      31.583      68.063
 251      18    13  0.358986  0.358986      22.524      32.377      70.538
 252      18    14  0.340915  0.340915      22.472      30.684      70.374
 253      19     1 -0.065656 -0.065656      96.926      64.864      72.852
 254      19     2 -0.694735 -0.694735      94.030      64.305      72.231
 255      19     3  0.096301  0.096301      94.387      65.644      72.177
 256      19     4 -0.007202 -0.007202      95.699      66.078      72.484
 257      19     5 -0.131049 -0.131049      93.438      66.647      71.871
 258      19     6 -0.119838 -0.119838      96.051      67.430      72.493
 259      19     7 -0.117192 -0.117192      93.783      68.000      71.878
 260      19     8 -0.132533 -0.132533      95.090      68.403      72.190
 261      19     9  0.116003  0.116003      92.414      66.341      71.632
 262      19    10  0.122579  0.122579      97.079      67.708      72.735
 263      19    11  0.117184  0.117184      93.022      68.747      71.636
 264      19    12  0.116237  0.116237      95.364      69.460      72.198
 265      19    13  0.358986  0.358986      93.220      64.047      71.674
 266      19    14  0.340915  0.340915      94.803      63.647      72.155
 267      20     1 -0.065656 -0.065656      57.437      59.408      66.236
 268      20     2 -0.694735 -0.694735      59.381      60.648      64.296
 269      20     3  0.096301  0.096301      58.437      59.813      63.717
 270      20     4 -0.007202 -0.007202      57.479      59.121      64.495
 271      20     5 -0.131049 -0.131049      58.426      59.568      62.324
 272      20     6 -0.119838 -0.119838      56.565      58.230      63.927
 273      20     7 -0.117192 -0.117192      57.516      58.679      61.750
 274      20     8 -0.132533 -0.132533      56.580      58.002      62.545
 275      20     9  0.116003  0.116003      59.158      60.089      61.698
 276      20    10  0.122579  0.122579      55.846      57.724      64.575
 277      20    11  0.117184  0.117184      57.538      58.516      60.669
 278      20    12  0.116237  0.116237      55.865      57.306      62.100
 279      20    13  0.358986  0.358986      59.775      61.354      63.680
 280      20    14  0.340915  0.340915      59.140      61.002      65.220
 281      21     1 -0.065656 -0.065656      98.958      53.437      97.185
 282      21     2 -0.694735 -0.694735      96.366      52.879      95.753
 283      21     3  0.096301  0.096301      96.835      54.177      95.618
 284      21     4 -0.007202 -0.007202      98.018      54.612      96.263
 285      21     5 -0.131049 -0.131049      96.120      55.145      94.875
 286      21     6 -0.119838 -0.119838      98.464      55.933      96.184
 287      21     7 -0.117192 -0.117192      96.561      56.467      94.791
 288      21     8 -0.132533 -0.132533      97.734      56.873      95.444
 289      21     9  0.116003  0.116003      95.200      54.837      94.367
 290      21    10  0.122579  0.122579      99.385      56.214      96.700
 291      21    11  0.117184  0.117184      95.980      57.187      94.207
 292      21    12  0.116237  0.116237      98.081      57.906      95.382
 293      21    13  0.358986  0.358986      95.752      52.558      95.009
 294      21    14  0.340915  0.340915      97.064      52.192      96.030
 295      22     1 -0.065656 -0.065656      83.864      12.711      87.904
 296      22     2 -0.694735 -0.694735      83.077      15.146      89.495
 297      22     3  0.096301  0.096301      83.705      14.152      90.230
 298      22     4 -0.007202 -0.007202      84.099      12.927      89.640
 299      22     5 -0.131049 -0.131049      83.926      14.292      91.620
 300      22     6 -0.119838 -0.119838      84.675      11.896      90.385
 301      22     7 -0.117192 -0.117192      84.502      13.265      92.370
 302      22     8 -0.132533 -0.132533      84.879      12.059      91.761
 303      22     9  0.116003  0.116003      83.628      15.228      92.103
 304      22    10  0.122579  0.122579      84.963      10.972      89.878
 305      22    11  0.117184  0.117184      84.657      13.410      93.443
 306      22    12  0.116237  0.116237      85.330      11.253      92.345
 307      22    13  0.358986  0.358986      83.152      16.085      89.879
 308      22    14  0.340915  0.340915      83.228      15.104      88.489
 309      23     1 -0.065656 -0.065656     106.786      -2.260      35.726
 310      23     2 -0.694735 -0.694735     103.873      -2.790      36.283
 311      23     3  0.096301  0.096301     104.663      -2.652      37.414
 312      23     4 -0.007202 -0.007202     106.060      -2.441      37.324
 313      23     5 -0.131049 -0.131049     104.118      -2.775      38.713
 314      23     6 -0.119838 -0.119838     106.873      -2.364      38.457
 315      23     7 -0.117192 -0.117192     104.925      -2.699      39.849
 316      23     8 -0.132533 -0.132533     106.307      -2.494      39.732
 317      23     9  0.116003  0.116003     103.040      -2.941      38.812
 318      23    10  0.122579  0.122579     107.945      -2.198      38.330
 319      23    11  0.117184  0.117184     104.466      -2.799      40.837
 320      23    12  0.116237  0.116237     106.942      -2.434      40.619
 321      23    13  0.358986  0.358986     102.886      -2.582      36.412
 322      23    14  0.340915  0.340915     104.263      -2.396      35.429
 323      24     1 -0.065656 -0.065656      39.272      50.899      36.583
 324      24     2 -0.694735 -0.694735      37.207      52.630      35.234
 325      24     3  0.096301  0.096301      37.960      53.275      36.204
 326      24     4 -0.007202 -0.007202      38.943      52.591      36.959
 327      24     5 -0.131049 -0.131049      37.739      54.634      36.525
 328      24     6 -0.119838 -0.119838      39.662      53.217      37.981
 329      24     7 -0.117192 -0.117192      38.454      55.266      37.544
 330      24     8 -0.132533 -0.132533      39.420      54.564      38.280
 331      24     9  0.116003  0.116003      36.983      55.187      35.958
 332      24    10  0.122579  0.122579      40.411      52.642      38.530
 333      24    11  0.117184  0.117184      38.255      56.318      37.763
 334      24    12  0.116237  0.116237      39.981      55.054      39.079
 335      24    13  0.358986  0.358986      36.805      53.233      34.522
 336      24    14  0.340915  0.340915      37.619      51.777      34.861
 337      25     1 -0.065656 -0.065656      23.571      77.869      93.648
 338      25     2 -0.694735 -0.694735      24.442      78.032      96.528
 339      25     3  0.096301  0.096301      23.778      76.863      96.188
 340      25     4 -0.007202 -0.007202      23.267      76.649      94.886
 341      25     5 -0.131049 -0.131049      23.527      75.854      97.147
 342      25     6 -0.119838 -0.119838      22.542      75.502      94.552
 343      25     7 -0.117192 -0.117192      22.804      74.705      96.820
 344      25     8 -0.132533 -0.132533      22.304      74.520      95.522
 345      25     9  0.116003  0.116003      23.909      75.994      98.163
 346      25    10  0.122579  0.122579      22.172      75.388      93.531
 347      25    11  0.117184  0.117184      22.630      73.947      97.588
 348      25    12  0.116237  0.116237      21.738      73.623      95.262
 349      25    13  0.358986  0.358986      25.065      77.963      97.328
 350      25    14  0.340915  0.340915      24.840      78.548      95.746
 351      26     1 -0.065656 -0.065656      94.009      76.714      65.805
 352      26     2 -0.694735 -0.694735      93.503      73.898      66.753
 353      26     3  0.096301  0.096301      92.561      74.827      67.167
 354      26     4 -0.007202 -0.007202      92.676      76.201      66.842
 355      26     5 -0.131049 -0.131049      91.469      74.454      67.985
 356      26     6 -0.119838 -0.119838      91.766      77.152      67.307
 357      26     7 -0.117192 -0.117192      90.556      75.401      68.453
 358      26     8 -0.132533 -0.132533      90.696      76.756      68.120
 359      26     9  0.116003  0.116003      91.357      73.399      68.254
 360      26    10  0.122579  0.122579      91.902      78.198      67.024
 361      26    11  0.117184  0.117184      89.725      75.074      69.084
 362      26    12  0.116237  0.116237      89.984      77.499      68.485
 363      26    13  0.358986  0.358986      93.178      72.936      66.712
 364      26    14  0.340915  0.340915      94.060      74.174      65.946
 365      27     1 -0.065656 -0.065656      32.598      86.005      23.531
 366      27     2 -0.694735 -0.694735      33.709      88.660      22.638
 367      27     3  0.096301  0.096301      33.874      87.627      21.728
 368      27     4 -0.007202 -0.007202      33.446      86.308      22.013
 369      27     5 -0.131049 -0.131049      34.534      87.831      20.494
 370      27     6 -0.119838 -0.119838      33.665      85.249      21.129
 371      27     7 -0.117192 -0.117192      34.756      86.777      19.605
 372      27     8 -0.132533 -0.132533      34.325      85.479      19.915
 373      27     9  0.116003  0.116003      34.879      88.841      20.248
 374      27    10  0.122579  0.122579      33.311      84.252      21.399
 375      27    11  0.117184  0.117184      35.270      86.975      18.660
 376      27    12  0.116237  0.116237      34.497      84.652      19.223
 377      27    13  0.358986  0.358986      33.706      89.595      22.240
 378      27    14  0.340915  0.340915      32.982      88.512      23.335
 379      28     1 -0.065656 -0.065656      53.883      38.020      53.631
 380      28     2 -0.694735 -0.694735      53.562      36.189      56.003
 381      28     3  0.096301  0.096301      52.916      35.765      54.851
 382      28     4 -0.007202 -0.007202      52.934      36.532      53.662
 383      28     5 -0.131049 -0.131049      52.158      34.571      54.830
 384      28     6 -0.119838 -0.119838      52.234      36.144      52.518
 385      28     7 -0.117192 -0.117192      51.456      34.177      53.689
 386      28     8 -0.132533 -0.132533      51.487      34.959      52.525
 387      28     9  0.116003  0.116003      52.124      33.959      55.737
 388      28    10  0.122579  0.122579      52.284      36.773      51.626
 389      28    11  0.117184  0.117184      50.881      33.247      53.711