Created by: LAMMPS for multicomponent system, Feb 2019

    3000  atoms
    2500  bonds
    3500  angles
       0  dihedrals
       0  impropers

       6  atom types
       5  bond types
       7  angle types
       0  dihedral types
       0  improper types

    -2.65    95.47  xlo xhi
    -2.65    95.47  ylo yhi
    -2.65    95.47  zlo zhi

 Atoms

   1       1     1  -0.37937235	-0.37937235   51.684      71.999      64.736 
   2       1     2  -0.21402650	-0.21402650   51.693      70.842      67.099 
   3       1     3  0.18070640	0.18070640  51.688      71.483      65.789 
   4       1     4  0.13756415	0.13756415  51.955      71.570      67.882 
   5       1     5  0.13756415	0.13756415  52.428      70.022      67.122 
   6       1     6  0.13756415	0.13756415  50.699      70.426      67.327 
   7       2     1  -0.37937235	-0.37937235   74.870      89.694       7.219 
   8       2     2  -0.21402650	-0.21402650   74.786      89.580       4.591 
   9       2     3  0.18070640	0.18070640  74.833      89.643       6.047 
  10       2     4  0.13756415	0.13756415  75.602      90.179       4.155 
  11       2     5  0.13756415	0.13756415  73.827      89.973       4.220 
  12       2     6  0.13756415	0.13756415  74.895      88.539       4.248 
  13       3     1  -0.37937235	-0.37937235   34.673       1.668      41.421 
  14       3     2  -0.21402650	-0.21402650   35.093       1.983      43.999 
  15       3     3  0.18070640	0.18070640  34.860       1.808      42.570 
  16       3     4  0.13756415	0.13756415  35.685       1.143      44.397 
  17       3     5  0.13756415	0.13756415  34.135       2.023      44.542 
  18       3     6  0.13756415	0.13756415  35.642       2.919      44.188 
  19       4     1  -0.37937235	-0.37937235   94.302      88.567      76.965 
  20       4     2  -0.21402650	-0.21402650   94.432      88.357      74.346 
  21       4     3  0.18070640	0.18070640  94.359      88.473      75.798 
  22       4     4  0.13756415	0.13756415  95.196      87.618      74.057 
  23       4     5  0.13756415	0.13756415  94.695      89.327      73.895 
  24       4     6  0.13756415	0.13756415  93.461      88.033      73.938 
  25       5     1  -0.37937235	-0.37937235   16.607      20.829      44.402 
  26       5     2  -0.21402650	-0.21402650   18.970      19.710      44.104 
  27       5     3  0.18070640	0.18070640  17.660      20.330      44.270 
  28       5     4  0.13756415	0.13756415  19.609      19.925      44.975 
  29       5     5  0.13756415	0.13756415  19.466      20.097      43.201 
  30       5     6  0.13756415	0.13756415  18.867      18.617      44.007 
  31       6     1  -0.37937235	-0.37937235    8.348      95.934       7.788 
  32       6     2  -0.21402650	-0.21402650    7.778      94.795       5.485 
  33       6     3  0.18070640	0.18070640   8.094      95.426       6.762 
  34       6     4  0.13756415	0.13756415   8.150      93.758       5.467 
  35       6     5  0.13756415	0.13756415   8.247      95.349       4.656 
  36       6     6  0.13756415	0.13756415   6.689      94.779       5.324 
  37       7     1  -0.37937235	-0.37937235   91.140      20.897      10.493 
  38       7     2  -0.21402650	-0.21402650   92.646      23.021      10.114 
  39       7     3  0.18070640	0.18070640  91.811      21.844      10.324 
  40       7     4  0.13756415	0.13756415  93.586      22.741       9.613 
  41       7     5  0.13756415	0.13756415  92.892      23.494      11.078 
  42       7     6  0.13756415	0.13756415  92.121      23.758       9.487 
  43       8     1  -0.37937235	-0.37937235   24.207      81.963      41.837 
  44       8     2  -0.21402650	-0.21402650   23.096      81.792      39.458 
  45       8     3  0.18070640	0.18070640  23.712      81.887      40.776 
  46       8     4  0.13756415	0.13756415  23.622      82.441      38.740 
  47       8     5  0.13756415	0.13756415  22.041      82.104      39.503 
  48       8     6  0.13756415	0.13756415  23.138      80.755      39.088 
  49       9     1  -0.37937235	-0.37937235   29.938      42.641      92.958 
  50       9     2  -0.21402650	-0.21402650   30.027      42.900      95.575 
  51       9     3  0.18070640	0.18070640  29.978      42.756      94.124 
  52       9     4  0.13756415	0.13756415  30.233      43.946      95.851 
  53       9     5  0.13756415	0.13756415  30.821      42.263      95.997 
  54       9     6  0.13756415	0.13756415  29.066      42.603      96.023 
  55      10     1  -0.37937235	-0.37937235   10.124      56.434      16.388 
  56      10     2  -0.21402650	-0.21402650   11.399      58.720      16.655 
  57      10     3  0.18070640	0.18070640  10.692      57.453      16.507 
  58      10     4  0.13756415	0.13756415  10.966      59.307      17.480 
  59      10     5  0.13756415	0.13756415  11.326      59.311      15.729 
  60      10     6  0.13756415	0.13756415  12.464      58.542      16.874 
  61      11     1  -0.37937235	-0.37937235   33.784      58.197      38.098 
  62      11     2  -0.21402650	-0.21402650   35.066      58.849      40.302 
  63      11     3  0.18070640	0.18070640  34.355      58.488      39.080 
  64      11     4  0.13756415	0.13756415  34.842      59.891      40.582 
  65      11     5  0.13756415	0.13756415  36.153      58.752      40.156 
  66      11     6  0.13756415	0.13756415  34.763      58.191      41.131 
  67      12     1  -0.37937235	-0.37937235   88.538      87.637      45.356 
  68      12     2  -0.21402650	-0.21402650   89.433      87.310      47.809 
  69      12     3  0.18070640	0.18070640  88.937      87.491      46.449 
  70      12     4  0.13756415	0.13756415  90.340      86.686      47.807 
  71      12     5  0.13756415	0.13756415  88.671      86.817      48.433 
  72      12     6  0.13756415	0.13756415  89.678      88.284      48.261 
  73      13     1  -0.37937235	-0.37937235   91.799      47.059      71.327 
  74      13     2  -0.21402650	-0.21402650   92.591      48.021      73.644 
  75      13     3  0.18070640	0.18070640  92.152      47.488      72.360 
  76      13     4  0.13756415	0.13756415  91.807      47.885      74.405 
  77      13     5  0.13756415	0.13756415  92.812      49.097      73.558 
  78      13     6  0.13756415	0.13756415  93.502      47.504      73.984 
  79      14     1  -0.37937235	-0.37937235   78.789      39.372      77.926 
  80      14     2  -0.21402650	-0.21402650   76.683      39.264      79.500 
  81      14     3  0.18070640	0.18070640  77.850      39.324      78.628 
  82      14     4  0.13756415	0.13756415  76.662      40.135      80.174 
  83      14     5  0.13756415	0.13756415  76.708      38.349      80.112 
  84      14     6  0.13756415	0.13756415  75.757      39.261      78.904 
  85      15     1  -0.37937235	-0.37937235   34.994      79.269      82.584 
  86      15     2  -0.21402650	-0.21402650   35.493      77.016      83.849 
  87      15     3  0.18070640	0.18070640  35.216      78.265      83.148 
  88      15     4  0.13756415	0.13756415  35.399      77.158      84.937 
  89      15     5  0.13756415	0.13756415  36.515      76.670      83.628 
  90      15     6  0.13756415	0.13756415  34.783      76.235      83.536 
  91      16     1  -0.37937235	-0.37937235   90.041      36.924       1.239 
  92      16     2  -0.21402650	-0.21402650   91.797      38.844       1.634 
  93      16     3  0.18070640	0.18070640  90.824      37.779       1.415 
  94      16     4  0.13756415	0.13756415  92.536      38.862       0.817 
  95      16     5  0.13756415	0.13756415  92.330      38.687       2.585 
  96      16     6  0.13756415	0.13756415  91.294      39.822       1.672 
  97      17     1  -0.37937235	-0.37937235   25.744      60.982       1.080 
  98      17     2  -0.21402650	-0.21402650   26.194      61.090       3.670 
  99      17     3  0.18070640	0.18070640  25.945      61.030       2.234 
 100      17     4  0.13756415	0.13756415  27.274      61.170       3.869 
 101      17     5  0.13756415	0.13756415  25.813      60.182       4.164 
 102      17     6  0.13756415	0.13756415  25.691      61.965       4.111 
 103      18     1  -0.37937235	-0.37937235   20.451      25.864      60.949 
 104      18     2  -0.21402650	-0.21402650   22.390      27.496      60.242 
 105      18     3  0.18070640	0.18070640  21.315      26.591      60.634 
 106      18     4  0.13756415	0.13756415  22.847      27.163      59.297 
 107      18     5  0.13756415	0.13756415  23.171      27.523      61.018 
 108      18     6  0.13756415	0.13756415  22.001      28.517      60.102 
 109      19     1  -0.37937235	-0.37937235   83.728      56.440      63.322 
 110      19     2  -0.21402650	-0.21402650   82.707      58.838      62.963 
 111      19     3  0.18070640	0.18070640  83.273      57.509      63.162 
 112      19     4  0.13756415	0.13756415  83.454      59.509      62.510 
 113      19     5  0.13756415	0.13756415  82.389      59.268      63.926 
 114      19     6  0.13756415	0.13756415  81.833      58.787      62.296 
 115      20     1  -0.37937235	-0.37937235   50.634      52.177      57.075 
 116      20     2  -0.21402650	-0.21402650   49.946      51.123      54.764 
 117      20     3  0.18070640	0.18070640  50.327      51.707      56.045 
 118      20     4  0.13756415	0.13756415  48.858      50.953      54.728 
 119      20     5  0.13756415	0.13756415  50.456      50.158      54.615 
 120      20     6  0.13756415	0.13756415  50.223      51.796      53.937 
 121      21     1  -0.37937235	-0.37937235   85.628      46.411      84.389 
 122      21     2  -0.21402650	-0.21402650   84.982      48.747      83.365 
 123      21     3  0.18070640	0.18070640  85.340      47.452      83.933 
 124      21     4  0.13756415	0.13756415  85.888      49.306      83.083 
 125      21     5  0.13756415	0.13756415  84.416      49.344      84.098 
 126      21     6  0.13756415	0.13756415  84.359      48.613      82.467 
 127      22     1  -0.37937235	-0.37937235   73.021      11.606      77.337 
 128      22     2  -0.21402650	-0.21402650   73.720      10.981      79.796 
 129      22     3  0.18070640	0.18070640  73.332      11.327      78.433 
 130      22     4  0.13756415	0.13756415  74.624      10.351      79.789 
 131      22     5  0.13756415	0.13756415  72.911      10.426      80.296 
 132      22     6  0.13756415	0.13756415  73.933      11.891      80.378 
 133      23     1  -0.37937235	-0.37937235   92.379      -2.447      31.255 
 134      23     2  -0.21402650	-0.21402650   92.278      -2.601      33.880 
 135      23     3  0.18070640	0.18070640  92.334      -2.515      32.424 
 136      23     4  0.13756415	0.13756415  93.014      -1.919      34.333 
 137      23     5  0.13756415	0.13756415  92.500      -3.627      34.213 
 138      23     6  0.13756415	0.13756415  91.275      -2.324      34.242 
 139      24     1  -0.37937235	-0.37937235   33.481      44.941      31.331 
 140      24     2  -0.21402650	-0.21402650   33.704      47.244      32.584 
 141      24     3  0.18070640	0.18070640  33.580      45.967      31.889 
 142      24     4  0.13756415	0.13756415  34.750      47.420      32.881 
 143      24     5  0.13756415	0.13756415  33.077      47.251      33.490 
 144      24     6  0.13756415	0.13756415  33.382      48.070      31.930 
 145      25     1  -0.37937235	-0.37937235   20.635      67.946      82.752 
 146      25     2  -0.21402650	-0.21402650   19.696      65.722      83.800 
 147      25     3  0.18070640	0.18070640  20.216      66.955      83.219 
 148      25     4  0.13756415	0.13756415  19.716      64.909      83.056 
 149      25     5  0.13756415	0.13756415  18.657      65.864      84.135 
 150      25     6  0.13756415	0.13756415  20.305      65.419      84.666 
 151      26     1  -0.37937235	-0.37937235   81.883      66.046      57.701 
 152      26     2  -0.21402650	-0.21402650   79.736      66.284      59.204 
 153      26     3  0.18070640	0.18070640  80.926      66.152      58.371 
 154      26     4  0.13756415	0.13756415  79.075      67.070      58.806 
 155      26     5  0.13756415	0.13756415  80.016      66.551      60.235 
 156      26     6  0.13756415	0.13756415  79.177      65.335      59.227 
 157      27     1  -0.37937235	-0.37937235   28.618      75.952      19.948 
 158      27     2  -0.21402650	-0.21402650   29.720      75.401      17.622 
 159      27     3  0.18070640	0.18070640  29.109      75.706      18.911 
 160      27     4  0.13756415	0.13756415  29.148      74.616      17.103 
 161      27     5  0.13756415	0.13756415  30.753      75.047      17.761 
 162      27     6  0.13756415	0.13756415  29.740      76.299      16.985 
 163      28     1  -0.37937235	-0.37937235   46.815      32.361      47.441 
 164      28     2  -0.21402650	-0.21402650   45.214      30.475      46.544 
 165      28     3  0.18070640	0.18070640  46.101      31.521      47.041 
 166      28     4  0.13756415	0.13756415  45.401      30.289      45.475 
 167      28     5  0.13756415	0.13756415  44.161      30.775      46.668 
 168      28     6  0.13756415	0.13756415  45.378      29.537      47.097 
 169      29     1  -0.37937235	-0.37937235   23.264      81.018      65.322 
 170      29     2  -0.21402650	-0.21402650   21.940      81.612      67.518 
 171      29     3  0.18070640	0.18070640  22.674      81.283      66.301 
 172      29     4  0.13756415	0.13756415  22.634      81.940      68.308 
 173      29     5  0.13756415	0.13756415  21.386      80.733      67.882 
 174      29     6  0.13756415	0.13756415  21.221      82.424      67.325 
 175      30     1  -0.37937235	-0.37937235   47.583      22.518       0.924 
 176      30     2  -0.21402650	-0.21402650   45.576      24.157       0.466 
 177      30     3  0.18070640	0.18070640  46.689      23.249       0.720 
 178      30     4  0.13756415	0.13756415  44.713      23.604       0.064 
 179      30     5  0.13756415	0.13756415  45.869      24.928      -0.263 
 180      30     6  0.13756415	0.13756415  45.268      24.656       1.399 
 181      31     1  -0.37937235	-0.37937235   58.254      61.495      28.351 
 182      31     2  -0.21402650	-0.21402650   59.221      59.200      29.202 
 183      31     3  0.18070640	0.18070640  58.685      60.472      28.730 
 184      31     4  0.13756415	0.13756415  58.629      58.826      30.052 
 185      31     5  0.13756415	0.13756415  60.266      59.322      29.529 
 186      31     6  0.13756415	0.13756415  59.191      58.449      28.397 
 187      32     1  -0.37937235	-0.37937235   89.969       5.394      78.254 
 188      32     2  -0.21402650	-0.21402650   89.441       5.609      75.685 
 189      32     3  0.18070640	0.18070640  89.734       5.490      77.109 
 190      32     4  0.13756415	0.13756415  88.829       4.758      75.347 
 191      32     5  0.13756415	0.13756415  90.374       5.623      75.101 
 192      32     6  0.13756415	0.13756415  88.888       6.540      75.483 
 193      33     1  -0.37937235	-0.37937235   23.453       3.780      20.318 
 194      33     2  -0.21402650	-0.21402650   23.008       3.618      22.907 
 195      33     3  0.18070640	0.18070640  23.255       3.708      21.472 
 196      33     4  0.13756415	0.13756415  23.742       4.224      23.461 
 197      33     5  0.13756415	0.13756415  23.088       2.574      23.246 
 198      33     6  0.13756415	0.13756415  21.998       3.987      23.146 
 199      34     1  -0.37937235	-0.37937235   49.217      29.356      67.462 
 200      34     2  -0.21402650	-0.21402650   50.096      27.130      68.557 
 201      34     3  0.18070640	0.18070640  49.608      28.364      67.950 
 202      34     4  0.13756415	0.13756415  51.191      27.162      68.664 
 203      34     5  0.13756415	0.13756415  49.830      26.264      67.931 
 204      34     6  0.13756415	0.13756415  49.650      26.991      69.555 
 205      35     1  -0.37937235	-0.37937235   22.088      39.975      24.001 
 206      35     2  -0.21402650	-0.21402650   21.591      40.473      26.536 
 207      35     3  0.18070640	0.18070640  21.867      40.197      25.131 
 208      35     4  0.13756415	0.13756415  21.831      41.521      26.776 
 209      35     5  0.13756415	0.13756415  22.197      39.818      27.182 
 210      35     6  0.13756415	0.13756415  20.527      40.298      26.760 
 211      36     1  -0.37937235	-0.37937235   93.887      39.623      27.439 
 212      36     2  -0.21402650	-0.21402650   93.317      39.447      30.002 
 213      36     3  0.18070640	0.18070640  93.633      39.545      28.581 
 214      36     4  0.13756415	0.13756415  94.219      39.188      30.579 
 215      36     5  0.13756415	0.13756415  92.556      38.669      30.174 
 216      36     6  0.13756415	0.13756415  92.926      40.407      30.375 
 217      37     1  -0.37937235	-0.37937235   84.312      80.202      40.372 
 218      37     2  -0.21402650	-0.21402650   86.577      81.291      41.154 
 219      37     3  0.18070640	0.18070640  85.321      80.687      40.721 
 220      37     4  0.13756415	0.13756415  86.593      82.363      40.904 
 221      37     5  0.13756415	0.13756415  87.429      80.803      40.656 
 222      37     6  0.13756415	0.13756415  86.698      81.183      42.243 
 223      38     1  -0.37937235	-0.37937235   36.199       9.355       3.806 
 224      38     2  -0.21402650	-0.21402650   37.482       7.732       5.432 
 225      38     3  0.18070640	0.18070640  36.771       8.632       4.530 
 226      38     4  0.13756415	0.13756415  38.197       7.111       4.869 
 227      38     5  0.13756415	0.13756415  36.772       7.067       5.949 
 228      38     6  0.13756415	0.13756415  38.037       8.307       6.189 
 229      39     1  -0.37937235	-0.37937235    9.202      20.148      67.633 
 230      39     2  -0.21402650	-0.21402650   11.113      21.947      67.828 
 231      39     3  0.18070640	0.18070640  10.054      20.950      67.720 
 232      39     4  0.13756415	0.13756415  12.066      21.537      67.457 
 233      39     5  0.13756415	0.13756415  11.248      22.252      68.878 
 234      39     6  0.13756415	0.13756415  10.862      22.840      67.234 
 235      40     1  -0.37937235	-0.37937235    8.444      62.509      28.322 
 236      40     2  -0.21402650	-0.21402650    8.674      62.624      25.703 
 237      40     3  0.18070640	0.18070640   8.546      62.560      27.155 
 238      40     4  0.13756415	0.13756415   9.666      62.264      25.389 
 239      40     5  0.13756415	0.13756415   8.550      63.661      25.352 
 240      40     6  0.13756415	0.13756415   7.906      61.998      25.222 
 241      41     1  -0.37937235	-0.37937235   34.445      45.044      77.175 
 242      41     2  -0.21402650	-0.21402650   31.832      45.208      77.440 
 243      41     3  0.18070640	0.18070640  33.281      45.117      77.293 
 244      41     4  0.13756415	0.13756415  31.330      44.566      76.699 
 245      41     5  0.13756415	0.13756415  31.496      46.246      77.289 
 246      41     6  0.13756415	0.13756415  31.527      44.884      78.447 
 247      42     1  -0.37937235	-0.37937235   75.432      20.860      45.129 
 248      42     2  -0.21402650	-0.21402650   73.194      19.645      45.793 
 249      42     3  0.18070640	0.18070640  74.435      20.318      45.425 
 250      42     4  0.13756415	0.13756415  73.280      19.204      46.799 
 251      42     5  0.13756415	0.13756415  72.967      18.840      45.076 
 252      42     6  0.13756415	0.13756415  72.355      20.359      45.794 
 253      43     1  -0.37937235	-0.37937235   77.465      54.821      29.349 
 254      43     2  -0.21402650	-0.21402650   76.214      55.538      31.551 
 255      43     3  0.18070640	0.18070640  76.907      55.141      30.330 
 256      43     4  0.13756415	0.13756415  75.207      55.918      31.314 
 257      43     5  0.13756415	0.13756415  76.774      56.332      32.069 
 258      43     6  0.13756415	0.13756415  76.113      54.679      32.232 
 259      44     1  -0.37937235	-0.37937235   67.733      32.773      31.332 
 260      44     2  -0.21402650	-0.21402650   68.719      32.731      33.772 
 261      44     3  0.18070640	0.18070640  68.172      32.754      32.419 
 262      44     4  0.13756415	0.13756415  69.603      33.385      33.840 
 263      44     5  0.13756415	0.13756415  69.018      31.708      34.047 
 264      44     6  0.13756415	0.13756415  67.967      33.083      34.496 
 265      45     1  -0.37937235	-0.37937235   76.895      75.198      66.821 
 266      45     2  -0.21402650	-0.21402650   78.430      76.697      65.298 
 267      45     3  0.18070640	0.18070640  77.579      75.866      66.142 
 268      45     4  0.13756415	0.13756415  78.442      77.735      65.668 
 269      45     5  0.13756415	0.13756415  78.057      76.700      64.261 
 270      45     6  0.13756415	0.13756415  79.462      76.314      65.297 
 271      46     1  -0.37937235	-0.37937235   78.075      -1.938      76.614 
 272      46     2  -0.21402650	-0.21402650   77.824      -0.772      78.959 
 273      46     3  0.18070640	0.18070640  77.964      -1.419      77.659 
 274      46     4  0.13756415	0.13756415  78.796      -0.382      79.300 
 275      46     5  0.13756415	0.13756415  77.454      -1.491      79.707 
 276      46     6  0.13756415	0.13756415  77.113       0.066      78.897 
 277      47     1  -0.37937235	-0.37937235   62.863      20.556      75.447 
 278      47     2  -0.21402650	-0.21402650   63.519      23.020      74.797 
 279      47     3  0.18070640	0.18070640  63.156      21.655      75.158 
 280      47     4  0.13756415	0.13756415  62.923      23.362      73.937 
 281      47     5  0.13756415	0.13756415  64.586      23.075      74.528 
 282      47     6  0.13756415	0.13756415  63.336      23.702      75.643 
 283      48     1  -0.37937235	-0.37937235   38.057       4.232      69.435 
 284      48     2  -0.21402650	-0.21402650   37.978       4.146      66.806 
 285      48     3  0.18070640	0.18070640  38.022       4.193      68.263 
 286      48     4  0.13756415	0.13756415  37.819       5.154      66.393 
 287      48     5  0.13756415	0.13756415  37.157       3.495      66.468 
 288      48     6  0.13756415	0.13756415  38.925       3.750      66.406 
 289      49     1  -0.37937235	-0.37937235   90.393      37.011      13.388 
 290      49     2  -0.21402650	-0.21402650   90.059      35.766      11.093 
 291      49     3  0.18070640	0.18070640  90.244      36.456      12.365 
 292      49     4  0.13756415	0.13756415  90.592      36.295      10.288 
 293      49     5  0.13756415	0.13756415  88.990      35.720      10.834 
 294      49     6  0.13756415	0.13756415  90.449      34.738      11.154 
 295      50     1  -0.37937235	-0.37937235    4.155      92.623      -0.200 
 296      50     2  -0.21402650	-0.21402650    3.495      91.397      -2.433 
 297      50     3  0.18070640	0.18070640   3.861      92.077      -1.195 
 298      50     4  0.13756415	0.13756415   4.396      91.033      -2.951 
 299      50     5  0.13756415	0.13756415   2.959      92.085      -3.105 
 300      50     6  0.13756415	0.13756415   2.843      90.536      -2.219 
 301      51     1  -0.37937235	-0.37937235   34.243      39.135      12.599 
 302      51     2  -0.21402650	-0.21402650   31.832      38.489      13.435 
 303      51     3  0.18070640	0.18070640  33.168      38.847      12.972 
 304      51     4  0.13756415	0.13756415  31.089      38.676      12.644 
 305      51     5  0.13756415	0.13756415  31.560      39.087      14.320 
 306      51     6  0.13756415	0.13756415  31.793      37.423      13.707 
 307      52     1  -0.37937235	-0.37937235    4.492      89.253      69.043 
 308      52     2  -0.21402650	-0.21402650    2.077      89.867      69.890 
 309      52     3  0.18070640	0.18070640   3.416      89.527      69.421 
 310      52     4  0.13756415	0.13756415   1.705      90.764      69.371 
 311      52     5  0.13756415	0.13756415   2.090      90.069      70.973 
 312      52     6  0.13756415	0.13756415   1.380      89.036      69.697 
 313      53     1  -0.37937235	-0.37937235   69.210      29.536      48.637 
 314      53     2  -0.21402650	-0.21402650   69.337      29.346      51.259 
 315      53     3  0.18070640	0.18070640  69.267      29.451      49.806 
 316      53     4  0.13756415	0.13756415  68.688      28.531      51.617 
 317      53     5  0.13756415	0.13756415  69.009      30.287      51.728 
 318      53     6  0.13756415	0.13756415  70.370      29.136      51.579 
 319      54     1  -0.37937235	-0.37937235    7.291       9.095      90.515 
 320      54     2  -0.21402650	-0.21402650    7.958       6.558      90.720 
 321      54     3  0.18070640	0.18070640   7.589       7.964      90.606 
 322      54     4  0.13756415	0.13756415   8.969       6.460      91.146 
 323      54     5  0.13756415	0.13756415   7.948       6.077      89.729 
 324      54     6  0.13756415	0.13756415   7.250       6.026      91.375 
 325      55     1  -0.37937235	-0.37937235   47.524      24.153      51.393 
 326      55     2  -0.21402650	-0.21402650   47.544      24.219      48.762 
 327      55     3  0.18070640	0.18070640  47.533      24.183      50.221 
 328      55     4  0.13756415	0.13756415  48.396      23.641      48.370 
 329      55     5  0.13756415	0.13756415  47.632      25.257      48.405 
 330      55     6  0.13756415	0.13756415  46.614      23.788      48.360 
 331      56     1  -0.37937235	-0.37937235   38.188      15.450      76.333 
 332      56     2  -0.21402650	-0.21402650   38.243      16.141      78.872 
 333      56     3  0.18070640	0.18070640  38.212      15.758      77.465 
 334      56     4  0.13756415	0.13756415  37.318      16.673      79.145 
 335      56     5  0.13756415	0.13756415  39.100      16.803      79.071 
 336      56     6  0.13756415	0.13756415  38.335      15.248      79.511 
 337      57     1  -0.37937235	-0.37937235   83.136      21.201      43.643 
 338      57     2  -0.21402650	-0.21402650   83.224      20.937      41.026 
 339      57     3  0.18070640	0.18070640  83.175      21.083      42.477 
 340      57     4  0.13756415	0.13756415  84.143      20.410      40.725 
 341      57     5  0.13756415	0.13756415  83.211      21.925      40.540 
 342      57     6  0.13756415	0.13756415  82.356      20.359      40.670 
 343      58     1  -0.37937235	-0.37937235    0.233      48.710      88.205 
 344      58     2  -0.21402650	-0.21402650    0.052      48.832      85.583 
 345      58     3  0.18070640	0.18070640   0.153      48.764      87.037 
 346      58     4  0.13756415	0.13756415  -0.758      48.178      85.223 
 347      58     5  0.13756415	0.13756415   0.996      48.507      85.118 
 348      58     6  0.13756415	0.13756415  -0.160      49.863      85.260 
 349      59     1  -0.37937235	-0.37937235   -1.719      -1.525      88.076 
 350      59     2  -0.21402650	-0.21402650   -1.746       0.291      86.172 
 351      59     3  0.18070640	0.18070640  -1.731      -0.715      87.227 
 352      59     4  0.13756415	0.13756415  -2.231      -0.108      85.268 
 353      59     5  0.13756415	0.13756415  -0.718       0.592      85.914 
 354      59     6  0.13756415	0.13756415  -2.299       1.185      86.501 
 355      60     1  -0.37937235	-0.37937235   59.167      64.363      49.031 
 356      60     2  -0.21402650	-0.21402650   59.443      61.772      49.396 
 357      60     3  0.18070640	0.18070640  59.290      63.208      49.194 
 358      60     4  0.13756415	0.13756415  60.507      61.490      49.360 
 359      60     5  0.13756415	0.13756415  58.907      61.214      48.611 
 360      60     6  0.13756415	0.13756415  59.035      61.476      50.375 
 361      61     1  -0.37937235	-0.37937235   61.771      13.722      48.971 
 362      61     2  -0.21402650	-0.21402650   63.314      14.198      46.893 
 363      61     3  0.18070640	0.18070640  62.459      13.934      48.045 
 364      61     4  0.13756415	0.13756415  62.947      15.073      46.335 
 365      61     5  0.13756415	0.13756415  63.324      13.330      46.215 
 366      61     6  0.13756415	0.13756415  64.347      14.399      47.220 
 367      62     1  -0.37937235	-0.37937235   24.283      18.498      33.315 
 368      62     2  -0.21402650	-0.21402650   25.513      17.726      31.120 
 369      62     3  0.18070640	0.18070640  24.831      18.154      32.337 
 370      62     4  0.13756415	0.13756415  24.780      17.456      30.344 
 371      62     5  0.13756415	0.13756415  26.146      16.848      31.323 
 372      62     6  0.13756415	0.13756415  26.151      18.536      30.733 
 373      63     1  -0.37937235	-0.37937235   69.066      50.262      38.674 
 374      63     2  -0.21402650	-0.21402650   70.579      48.241      39.417 
 375      63     3  0.18070640	0.18070640  69.740      49.362      39.005 
 376      63     4  0.13756415	0.13756415  71.451      48.149      38.750 
 377      63     5  0.13756415	0.13756415  70.008      47.300      39.378 
 378      63     6  0.13756415	0.13756415  70.940      48.390      40.447 
 379      64     1  -0.37937235	-0.37937235   21.378      19.488      17.547 
 380      64     2  -0.21402650	-0.21402650   21.679      17.504      15.844 
 381      64     3  0.18070640	0.18070640  21.512      18.604      16.788 
 382      64     4  0.13756415	0.13756415  22.720      17.144      15.855 
 383      64     5  0.13756415	0.13756415  21.434      17.835      14.822 
 384      64     6  0.13756415	0.13756415  21.016      16.666      16.109 
 385      65     1  -0.37937235	-0.37937235   29.971      28.608      25.617 
 386      65     2  -0.21402650	-0.21402650   27.879      29.639      24.397 
 387      65     3  0.18070640	0.18070640  29.039      29.068      25.073 
 388      65     4  0.13756415	0.13756415  27.320      28.854      23.865 
 389      65     5  0.13756415	0.13756415  28.197      30.399      23.666 
 390      65     6  0.13756415	0.13756415  27.206      30.115      25.127 