Created by: LAMMPS for multicomponent system, Feb 2019

    4250  atoms
    4500  bonds
    7000  angles
   10000  dihedrals
    2250  impropers

      17  atom types
      18  bond types
      28  angle types
      40  dihedral types
       9  improper types

    -2.65   111.08  xlo xhi
    -2.65   111.08  ylo yhi
    -2.65   111.08  zlo zhi

 Atoms

   1       1     1 -0.380606 -0.380606      59.241      82.910      75.384
   2       1     2 -0.012512 -0.012512      60.912      83.626      77.056
   3       1     3  0.121552  0.121552      59.801      82.811      76.631
   4       1     4 -0.108723 -0.108723      61.434      83.460      78.369
   5       1     5 -0.088045 -0.088045      61.430      84.564      76.122
   6       1     6 -0.099958 -0.099958      59.258      81.861      77.541
   7       1     7 -0.110958 -0.110958      60.883      82.526      79.230
   8       1     8 -0.107634 -0.107634      59.788      81.722      78.812
   9       1     9 -0.113771 -0.113771      60.857      84.655      74.867
  10       1    10  0.049485  0.049485      59.764      83.803      74.552
  11       1    11  0.116758  0.116758      62.278      84.082      78.685
  12       1    12  0.122604  0.122604      62.274      85.200      76.411
  13       1    13  0.126482  0.126482      58.416      81.256      77.193
  14       1    14  0.118338  0.118338      61.289      82.404      80.238
  15       1    15  0.119156  0.119156      59.364      80.989      79.505
  16       1    16  0.121383  0.121383      61.228      85.365      74.123
  17       1    17  0.126451  0.126451      59.301      83.866      73.558
  18       2     1 -0.380606 -0.380606      86.767     103.025       8.505
  19       2     2 -0.012512 -0.012512      87.381     105.034       7.204
  20       2     3  0.121552  0.121552      86.947     103.663       7.304
  21       2     4 -0.108723 -0.108723      87.544     105.620       5.918
  22       2     5 -0.088045 -0.088045      87.625     105.733       8.418
  23       2     6 -0.099958 -0.099958      86.694     102.933       6.109
  24       2     7 -0.110958 -0.110958      87.289     104.883       4.774
  25       2     8 -0.107634 -0.107634      86.861     103.531       4.871
  26       2     9 -0.113771 -0.113771      87.440     105.080       9.623
  27       2    10  0.049485  0.049485      87.009     103.725       9.606
  28       2    11  0.116758  0.116758      87.874     106.662       5.850
  29       2    12  0.122604  0.122604      87.956     106.776       8.380
  30       2    13  0.126482  0.126482      86.366     101.895       6.213
  31       2    14  0.118338  0.118338      87.416     105.340       3.789
  32       2    15  0.119156  0.119156      86.664     102.963       3.958
  33       2    16  0.121383  0.121383      87.618     105.585      10.576
  34       2    17  0.126451  0.126451      86.859     103.197      10.557
  35       3     1 -0.380606 -0.380606      40.773       3.794      48.593
  36       3     2 -0.012512 -0.012512      40.802       1.798      50.048
  37       3     3  0.121552  0.121552      40.905       3.220      49.831
  38       3     4 -0.108723 -0.108723      40.952       1.283      51.366
  39       3     5 -0.088045 -0.088045      40.552       0.979      48.914
  40       3     6 -0.099958 -0.099958      41.155       4.069      50.945
  41       3     7 -0.110958 -0.110958      41.194       2.137      52.429
  42       3     8 -0.107634 -0.107634      41.296       3.538      52.216
  43       3     9 -0.113771 -0.113771      40.420       1.569      47.670
  44       3    10  0.049485  0.049485      40.540       2.982      47.569
  45       3    11  0.116758  0.116758      40.872       0.202      51.523
  46       3    12  0.122604  0.122604      40.468      -0.105      49.041
  47       3    13  0.126482  0.126482      41.228       5.143      50.753
  48       3    14  0.118338  0.118338      41.308       1.734      53.439
  49       3    15  0.119156  0.119156      41.488       4.199      53.067
  50       3    16  0.121383  0.121383      40.228       0.972      46.775
  51       3    17  0.126451  0.126451      40.438       3.462      46.586
  52       4     1 -0.380606 -0.380606     108.347     103.242      89.194
  53       4     2 -0.012512 -0.012512     110.546     102.856      88.137
  54       4     3  0.121552  0.121552     109.119     103.052      88.077
  55       4     4 -0.108723 -0.108723     111.273     102.665      86.929
  56       4     5 -0.088045 -0.088045     111.154     102.865      89.421
  57       4     6 -0.099958 -0.099958     108.477     103.048      86.807
  58       4     7 -0.110958 -0.110958     110.618     102.667      85.709
  59       4     8 -0.107634 -0.107634     109.212     102.860      85.648
  60       4     9 -0.113771 -0.113771     110.366     103.057      90.541
  61       4    10  0.049485  0.049485     108.967     103.241      90.368
  62       4    11  0.116758  0.116758     112.357     102.517      86.982
  63       4    12  0.122604  0.122604     112.236     102.719      89.505
  64       4    13  0.126482  0.126482     107.394     103.199      86.790
  65       4    14  0.118338  0.118338     111.184     102.520      84.784
  66       4    15  0.119156  0.119156     108.710     102.859      84.676
  67       4    16  0.121383  0.121383     110.798     103.071      91.545
  68       4    17  0.126451  0.126451     108.331     103.395      91.250
  69       5     1 -0.380606 -0.380606      19.385      23.309      51.204
  70       5     2 -0.012512 -0.012512      21.381      24.492      52.055
  71       5     3  0.121552  0.121552      20.741      23.377      51.401
  72       5     4 -0.108723 -0.108723      22.794      24.483      52.219
  73       5     5 -0.088045 -0.088045      20.548      25.552      52.505
  74       5     6 -0.099958 -0.099958      21.544      22.298      50.938
  75       5     7 -0.110958 -0.110958      23.547      23.418      51.757
  76       5     8 -0.107634 -0.107634      22.917      22.319      51.113
  77       5     9 -0.113771 -0.113771      19.183      25.473      52.301
  78       5    10  0.049485  0.049485      18.656      24.328      51.645
  79       5    11  0.116758  0.116758      23.273      25.333      52.716
  80       5    12  0.122604  0.122604      21.000      26.415      53.006
  81       5    13  0.126482  0.126482      21.034      21.466      50.446
  82       5    14  0.118338  0.118338      24.633      23.418      51.886
  83       5    15  0.119156  0.119156      23.527      21.485      50.753
  84       5    16  0.121383  0.121383      18.511      26.269      52.633
  85       5    17  0.126451  0.126451      17.573      24.253      51.477
  86       6     1 -0.380606 -0.380606       8.796     112.169       9.091
  87       6     2 -0.012512 -0.012512      10.412     110.575       8.117
  88       6     3  0.121552  0.121552       9.169     111.305       8.095
  89       6     4 -0.108723 -0.108723      10.723     109.698       7.042
  90       6     5 -0.088045 -0.088045      11.270     110.779       9.233
  91       6     6 -0.099958 -0.099958       8.286     111.125       6.993
  92       6     7 -0.110958 -0.110958       9.843     109.545       5.984
  93       6     8 -0.107634 -0.107634       8.617     110.264       5.961
  94       6     9 -0.113771 -0.113771      10.883     111.652      10.232
  95       6    10  0.049485  0.049485       9.635     112.321      10.109
  96       6    11  0.116758  0.116758      11.670     109.147       7.066
  97       6    12  0.122604  0.122604      12.222     110.241       9.284
  98       6    13  0.126482  0.126482       7.351     111.690       7.000
  99       6    14  0.118338  0.118338      10.089     108.868       5.161
 100       6    15  0.119156  0.119156       7.933     110.132       5.118
 101       6    16  0.121383  0.121383      11.516     111.835      11.105
 102       6    17  0.126451  0.126451       9.317     113.018      10.896
 103       7     1 -0.380606 -0.380606     105.110      25.708      12.294
 104       7     2 -0.012512 -0.012512     107.562      25.480      12.487
 105       7     3  0.121552  0.121552     106.368      26.251      12.248
 106       7     4 -0.108723 -0.108723     108.830      26.122      12.421
 107       7     5 -0.088045 -0.088045     107.401      24.099      12.782
 108       7     6 -0.099958 -0.099958     106.493      27.638      11.951
 109       7     7 -0.110958 -0.110958     108.917      27.473      12.129
 110       7     8 -0.107634 -0.107634     107.741      28.234      11.893
 111       7     9 -0.113771 -0.113771     106.128      23.561      12.825
 112       7    10  0.049485  0.049485     105.018      24.413      12.573
 113       7    11  0.116758  0.116758     109.733      25.530      12.604
 114       7    12  0.122604  0.122604     108.286      23.482      12.969
 115       7    13  0.126482  0.126482     105.572      28.199      11.773
 116       7    14  0.118338  0.118338     109.895      27.960      12.079
 117       7    15  0.119156  0.119156     107.827      29.300      11.664
 118       7    16  0.121383  0.121383     105.964      22.503      13.048
 119       7    17  0.126451  0.126451     104.002      23.998      12.604
 120       8     1 -0.380606 -0.380606      28.071      94.031      48.813
 121       8     2 -0.012512 -0.012512      27.963      96.053      47.398
 122       8     3  0.121552  0.121552      27.711      94.656      47.647
 123       8     4 -0.108723 -0.108723      27.557      96.624      46.160
 124       8     5 -0.088045 -0.088045      28.615      96.792      48.423
 125       8     6 -0.099958 -0.099958      27.060      93.885      46.642
 126       8     7 -0.110958 -0.110958      26.926      95.847      45.204
 127       8     8 -0.107634 -0.107634      26.677      94.470      45.447
 128       8     9 -0.113771 -0.113771      28.974      96.152      49.595
 129       8    10  0.049485  0.049485      28.677      94.769      49.736
 130       8    11  0.116758  0.116758      27.752      97.686      45.979
 131       8    12  0.122604  0.122604      28.823      97.857      48.269
 132       8    13  0.126482  0.126482      26.881      92.828      46.856
 133       8    14  0.118338  0.118338      26.616      96.293      44.254
 134       8    15  0.119156  0.119156      26.177      93.870      44.681
 135       8    16  0.121383  0.121383      29.476      96.688      50.405
 136       8    17  0.126451  0.126451      28.957      94.250      50.662
 137       9     1 -0.380606 -0.380606      34.109      48.918     108.653
 138       9     2 -0.012512 -0.012512      35.719      50.511     109.640
 139       9     3  0.121552  0.121552      34.673      49.525     109.746
 140       9     4 -0.108723 -0.108723      36.249      51.092     110.825
 141       9     5 -0.088045 -0.088045      36.168      50.850     108.335
 142       9     6 -0.099958 -0.099958      34.199      49.161     111.038
 143       9     7 -0.110958 -0.110958      35.767      50.717     112.067
 144       9     8 -0.107634 -0.107634      34.735      49.745     112.173
 145       9     9 -0.113771 -0.113771      35.593      50.232     107.240
 146       9    10  0.049485  0.049485      34.567      49.273     107.458
 147       9    11  0.116758  0.116758      37.044      51.841     110.737
 148       9    12  0.122604  0.122604      36.962      51.595     108.216
 149       9    13  0.126482  0.126482      33.405      48.412     111.090
 150       9    14  0.118338  0.118338      36.179      51.168     112.974
 151       9    15  0.119156  0.119156      34.365      49.460     113.162
 152       9    16  0.121383  0.121383      35.912      50.467     106.221
 153       9    17  0.126451  0.126451      34.103      48.775     106.597
 154      10     1 -0.380606 -0.380606      13.542      65.506      19.108
 155      10     2 -0.012512 -0.012512      12.262      67.517      19.757
 156      10     3  0.121552  0.121552      13.487      66.844      19.403
 157      10     4 -0.108723 -0.108723      12.292      68.909      20.048
 158      10     5 -0.088045 -0.088045      11.074      66.736      19.795
 159      10     6 -0.099958 -0.099958      14.695      67.596      19.355
 160      10     7 -0.110958 -0.110958      13.484      69.611      19.992
 161      10     8 -0.107634 -0.107634      14.692      68.950      19.644
 162      10     9 -0.113771 -0.113771      11.142      65.388      19.496
 163      10    10  0.049485  0.049485      12.403      64.826      19.159
 164      10    11  0.116758  0.116758      11.357      69.413      20.316
 165      10    12  0.122604  0.122604      10.125      67.214      20.059
 166      10    13  0.126482  0.126482      15.609      67.061      19.084
 167      10    14  0.118338  0.118338      13.499      70.682      20.218
 168      10    15  0.119156  0.119156      15.625      69.519      19.605
 169      10    16  0.121383  0.121383      10.250      64.756      19.515
 170      10    17  0.126451  0.126451      12.469      63.756      18.920
 171      11     1 -0.380606 -0.380606      39.568      66.656      45.375
 172      11     2 -0.012512 -0.012512      40.433      68.957      45.614
 173      11     3  0.121552  0.121552      40.231      67.614      46.097
 174      11     4 -0.108723 -0.108723      41.132      69.891      46.428
 175      11     5 -0.088045 -0.088045      39.913      69.275      44.330
 176      11     6 -0.099958 -0.099958      40.738      67.261      47.379
 177      11     7 -0.110958 -0.110958      41.613      69.516      47.671
 178      11     8 -0.107634 -0.107634      41.415      68.193      48.148
 179      11     9 -0.113771 -0.113771      39.246      68.301      43.610
 180      11    10  0.049485  0.049485      39.103      67.007      44.182
 181      11    11  0.116758  0.116758      41.281      70.910      46.054
 182      11    12  0.122604  0.122604      40.047      70.286      43.930
 183      11    13  0.126482  0.126482      40.572      66.236      47.722
 184      11    14  0.118338  0.118338      42.150      70.240      48.291
 185      11    15  0.119156  0.119156      41.801      67.913      49.132
 186      11    16  0.121383  0.121383      38.833      68.509      42.619
 187      11    17  0.126451  0.126451      38.576      66.225      43.620
 188      12     1 -0.380606 -0.380606     102.769     103.275      53.646
 189      12     2 -0.012512 -0.012512     103.784     101.110      54.267
 190      12     3  0.121552  0.121552     103.369     102.457      54.569
 191      12     4 -0.108723 -0.108723     104.400     100.328      55.283
 192      12     5 -0.088045 -0.088045     103.551     100.634      52.948
 193      12     6 -0.099958 -0.099958     103.588     102.967      55.880
 194      12     7 -0.110958 -0.110958     104.599     100.853      56.549
 195      12     8 -0.107634 -0.107634     104.190     102.180      56.848
 196      12     9 -0.113771 -0.113771     102.945     101.467      52.026
 197      12    10  0.049485  0.049485     102.575     102.779      52.430
 198      12    11  0.116758  0.116758     104.713      99.305      55.046
 199      12    12  0.122604  0.122604     103.853      99.615      52.683
 200      12    13  0.126482  0.126482     103.263     103.991      56.082
 201      12    14  0.118338  0.118338     105.073     100.246      57.325
 202      12    15  0.119156  0.119156     104.354     102.580      57.853
 203      12    16  0.121383  0.121383     102.749     101.136      51.002
 204      12    17  0.126451  0.126451     102.094     103.450      51.706
 205      13     1 -0.380606 -0.380606     108.252      54.670      83.137
 206      13     2 -0.012512 -0.012512     106.592      55.761      84.605
 207      13     3  0.121552  0.121552     107.929      55.315      84.303
 208      13     4 -0.108723 -0.108723     106.342      56.423      85.839
 209      13     5 -0.088045 -0.088045     105.584      55.509      83.636
 210      13     6 -0.099958 -0.099958     108.964      55.551      85.251
 211      13     7 -0.110958 -0.110958     107.371      56.637      86.741
 212      13     8 -0.107634 -0.107634     108.689      56.198      86.444
 213      13     9 -0.113771 -0.113771     105.920      54.858      82.464
 214      13    10  0.049485  0.049485     107.271      54.461      82.267
 215      13    11  0.116758  0.116758     105.324      56.759      86.062
 216      13    12  0.122604  0.122604     104.556      55.834      83.832
 217      13    13  0.126482  0.126482     109.969      55.202      84.997
 218      13    14  0.118338  0.118338     107.172      57.147      87.688
 219      13    15  0.119156  0.119156     109.491      56.375      87.167
 220      13    16  0.121383  0.121383     105.172      54.646      81.695
 221      13    17  0.126451  0.126451     107.551      53.943      81.340
 222      14     1 -0.380606 -0.380606      90.704      45.479      89.907
 223      14     2 -0.012512 -0.012512      90.909      46.294      92.230
 224      14     3  0.121552  0.121552      90.158      45.720      91.142
 225      14     4 -0.108723 -0.108723      90.266      46.511      93.480
 226      14     5 -0.088045 -0.088045      92.272      46.616      91.987
 227      14     6 -0.099958 -0.099958      88.791      45.385      91.351
 228      14     7 -0.110958 -0.110958      88.934      46.175      93.651
 229      14     8 -0.107634 -0.107634      88.193      45.608      92.580
 230      14     9 -0.113771 -0.113771      92.812      46.370      90.738
 231      14    10  0.049485  0.049485      91.981      45.799      89.735
 232      14    11  0.116758  0.116758      90.843      46.948      94.303
 233      14    12  0.122604  0.122604      92.873      47.055      92.790
 234      14    13  0.126482  0.126482      88.245      44.951      90.510
 235      14    14  0.118338  0.118338      88.446      46.344      94.616
 236      14    15  0.119156  0.119156      87.141      45.348      92.731
 237      14    16  0.121383  0.121383      93.856      46.604      90.513
 238      14    17  0.126451  0.126451      92.399      45.598      88.740
 239      15     1 -0.380606 -0.380606      40.436      91.275      95.270
 240      15     2 -0.012512 -0.012512      41.603      91.362      97.445
 241      15     3  0.121552  0.121552      40.971      90.647      96.365
 242      15     4 -0.108723 -0.108723      42.133      90.633      98.546
 243      15     5 -0.088045 -0.088045      41.660      92.779      97.347
 244      15     6 -0.099958 -0.099958      40.895      89.227      96.431
 245      15     7 -0.110958 -0.110958      42.043      89.252      98.580
 246      15     8 -0.107634 -0.107634      41.421      88.546      97.516
 247      15     9 -0.113771 -0.113771      41.118      93.402      96.238
 248      15    10  0.049485  0.049485      40.517      92.600      95.229
 249      15    11  0.116758  0.116758      42.612      91.183      99.363
 250      15    12  0.122604  0.122604      42.133      93.355      98.149
 251      15    13  0.126482  0.126482      40.411      88.709      95.599
 252      15    14  0.118338  0.118338      42.453      88.698      99.430
 253      15    15  0.119156  0.119156      41.359      87.454      97.559
 254      15    16  0.121383  0.121383      41.143      94.489      96.127
 255      15    17  0.126451  0.126451      40.083      93.083      94.344
 256      16     1 -0.380606 -0.380606     104.011      44.294       2.460
 257      16     2 -0.012512 -0.012512     106.361      43.916       1.797
 258      16     3  0.121552  0.121552     105.308      44.728       2.354
 259      16     4 -0.108723 -0.108723     107.680      44.443       1.724
 260      16     5 -0.088045 -0.088045     106.013      42.614       1.346
 261      16     6 -0.099958 -0.099958     105.620      46.038       2.816
 262      16     7 -0.110958 -0.110958     107.951      45.721       2.182
 263      16     8 -0.107634 -0.107634     106.914      46.523       2.731
 264      16     9 -0.113771 -0.113771     104.703      42.187       1.458
 265      16    10  0.049485  0.049485     103.743      43.070       2.023
 266      16    11  0.116758  0.116758     108.475      43.821       1.300
 267      16    12  0.122604  0.122604     106.788      41.969       0.917
 268      16    13  0.126482  0.126482     104.803      46.632       3.234
 269      16    14  0.118338  0.118338     108.968      46.120       2.122
 270      16    15  0.119156  0.119156     107.145      47.530       3.089
 271      16    16  0.121383  0.121383     104.398      41.192       1.122
 272      16    17  0.126451  0.126451     102.699      42.742       2.117
 273      17     1 -0.380606 -0.380606      29.138      71.872       2.197
 274      17     2 -0.012512 -0.012512      31.155      70.770       3.104
 275      17     3  0.121552  0.121552      29.942      71.536       3.255
 276      17     4 -0.108723 -0.108723      31.932      70.464       4.255
 277      17     5 -0.088045 -0.088045      31.509      70.359       1.790
 278      17     6 -0.099958 -0.099958      29.557      71.965       4.557
 279      17     7 -0.110958 -0.110958      31.530      70.896       5.508
 280      17     8 -0.107634 -0.107634      30.335      71.651       5.658
 281      17     9 -0.113771 -0.113771      30.691      70.704       0.730
 282      17    10  0.049485  0.049485      29.517      71.462       0.992
 283      17    11  0.116758  0.116758      32.851      69.882       4.133
 284      17    12  0.122604  0.122604      32.423      69.776       1.638
 285      17    13  0.126482  0.126482      28.634      72.544       4.643
 286      17    14  0.118338  0.118338      32.132      70.657       6.389
 287      17    15  0.119156  0.119156      30.032      71.984       6.655
 288      17    16  0.121383  0.121383      30.930      70.405      -0.294
 289      17    17  0.126451  0.126451      28.860      71.742       0.158
 290      18     1 -0.380606 -0.380606      23.654      31.714      71.485
 291      18     2 -0.012512 -0.012512      25.656      30.780      70.380
 292      18     3  0.121552  0.121552      24.888      31.878      70.910
 293      18     4 -0.108723 -0.108723      26.929      31.037      69.800
 294      18     5 -0.088045 -0.088045      25.087      29.480      70.470
 295      18     6 -0.099958 -0.099958      25.428      33.194      70.836
 296      18     7 -0.110958 -0.110958      27.426      32.328      69.743
 297      18     8 -0.107634 -0.107634      26.670      33.412      70.265
 298      18     9 -0.113771 -0.113771      23.842      29.326      71.052
 299      18    10  0.049485  0.049485      23.170      30.479      71.543
 300      18    11  0.116758  0.116758      27.507      30.197      69.399
 301      18    12  0.122604  0.122604      25.642      28.621      70.078
 302      18    13  0.126482  0.126482      24.825      34.009      71.245
 303      18    14  0.118338  0.118338      28.405      32.518      69.295
 304      18    15  0.119156  0.119156      27.077      34.426      70.213
 305      18    16  0.121383  0.121383      23.372      28.343      71.139
 306      18    17  0.126451  0.126451      22.181      30.370      72.007
 307      19     1 -0.380606 -0.380606      96.081      65.586      73.463
 308      19     2 -0.012512 -0.012512      97.536      67.559      73.770
 309      19     3  0.121552  0.121552      96.269      66.945      73.461
 310      19     4 -0.108723 -0.108723      97.645      68.977      73.745
 311      19     5 -0.088045 -0.088045      98.621      66.698      74.088
 312      19     6 -0.099958 -0.099958      95.161      67.778      73.138
 313      19     7 -0.110958 -0.110958      96.548      69.760      73.427
 314      19     8 -0.107634 -0.107634      95.299      69.155      73.122
 315      19     9 -0.113771 -0.113771      98.420      65.330      74.087
 316      19    10  0.049485  0.049485      97.129      64.829      73.767
 317      19    11  0.116758  0.116758      98.611      69.437      73.982
 318      19    12  0.122604  0.122604      99.598      67.130      74.329
 319      19    13  0.126482  0.126482      94.212      67.286      72.907
 320      19    14  0.118338  0.118338      96.640      70.850      73.410
 321      19    15  0.119156  0.119156      94.442      69.788      72.873
 322      19    16  0.121383  0.121383      99.230      64.636      74.326
 323      19    17  0.126451  0.126451      96.957      63.745      73.763
 324      20     1 -0.380606 -0.380606      60.008      61.531      65.617
 325      20     2 -0.012512 -0.012512      58.181      59.869      65.562
 326      20     3  0.121552  0.121552      59.198      60.669      64.925
 327      20     4 -0.108723 -0.108723      57.383      58.998      64.769
 328      20     5 -0.088045 -0.088045      58.034      59.998      66.969
 329      20     6 -0.099958 -0.099958      59.373      60.564      63.516
 330      20     7 -0.110958 -0.110958      57.579      58.920      63.400
 331      20     8 -0.107634 -0.107634      58.580      59.708      62.771
 332      20     9 -0.113771 -0.113771      58.856      60.871      67.658
 333      20    10  0.049485  0.049485      59.827      61.612      66.930
 334      20    11  0.116758  0.116758      56.613      58.394      65.259
 335      20    12  0.122604  0.122604      57.272      59.406      67.487
 336      20    13  0.126482  0.126482      60.150      61.182      63.058
 337      20    14  0.118338  0.118338      56.961      58.248      62.797
 338      20    15  0.119156  0.119156      58.721      59.634      61.689
 339      20    16  0.121383  0.121383      58.772      60.997      68.741
 340      20    17  0.126451  0.126451      60.486      62.309      67.466
 341      21     1 -0.380606 -0.380606      98.449      53.952      97.494
 342      21     2 -0.012512 -0.012512      99.898      55.899      97.957
 343      21     3  0.121552  0.121552      98.744      55.283      97.350
 344      21     4 -0.108723 -0.108723     100.131      57.288      97.756
 345      21     5 -0.088045 -0.088045     100.750      55.067      98.733
 346      21     6 -0.099958 -0.099958      97.869      56.086      96.566
 347      21     7 -0.110958 -0.110958      99.260      58.041      96.988
 348      21     8 -0.107634 -0.107634      98.123      57.436      96.389
 349      21     9 -0.113771 -0.113771     100.443      53.726      98.872
 350      21    10  0.049485  0.049485      99.279      53.222      98.230
 351      21    11  0.116758  0.116758     101.010      57.748      98.220
 352      21    12  0.122604  0.122604     101.636      55.501      99.209
 353      21    13  0.126482  0.126482      97.001      55.595      96.117
 354      21    14  0.118338  0.118338      99.446      59.109      96.838
 355      21    15  0.119156  0.119156      97.445      58.046      95.785
 356      21    16  0.121383  0.121383     101.075      53.056      99.461
 357      21    17  0.126451  0.126451      99.025      52.159      98.333
 358      22     1 -0.380606 -0.380606      84.736      15.064      90.839
 359      22     2 -0.012512 -0.012512      85.694      12.829      91.275
 360      22     3  0.121552  0.121552      85.260      14.136      91.702
 361      22     4 -0.108723 -0.108723      86.226      11.925      92.235
 362      22     5 -0.088045 -0.088045      85.562      12.515      89.895
 363      22     6 -0.099958 -0.099958      85.377      14.484      93.077
 364      22     7 -0.110958 -0.110958      86.327      12.294      93.566
 365      22     8 -0.107634 -0.107634      85.900      13.581      93.988
 366      22     9 -0.113771 -0.113771      85.033      13.458      89.034
 367      22    10  0.049485  0.049485      84.636      14.718      89.561
 368      22    11  0.116758  0.116758      86.554      10.934      91.903
 369      22    12  0.122604  0.122604      85.882      11.531      89.534
 370      22    13  0.126482  0.126482      85.041      15.481      93.374
 371      22    14  0.118338  0.118338      86.737      11.593      94.298
 372      22    15  0.119156  0.119156      85.986      13.858      95.043
 373      22    16  0.121383  0.121383      84.917      13.253      87.966
 374      22    17  0.126451  0.126451      84.215      15.475      88.888
 375      23     1 -0.380606 -0.380606     106.085      -2.617      36.939
 376      23     2 -0.012512 -0.012512     108.183      -2.409      38.227
 377      23     3  0.121552  0.121552     106.756      -2.593      38.134
 378      23     4 -0.108723 -0.108723     108.800      -2.397      39.508
 379      23     5 -0.088045 -0.088045     108.902      -2.249      37.012
 380      23     6 -0.099958 -0.099958     106.004      -2.756      39.332
 381      23     7 -0.110958 -0.110958     108.041      -2.559      40.655
 382      23     8 -0.107634 -0.107634     106.634      -2.739      40.565
 383      23     9 -0.113771 -0.113771     108.216      -2.275      35.811
 384      23    10  0.049485  0.049485     106.806      -2.463      35.835
 385      23    11  0.116758  0.116758     109.885      -2.257      39.571
 386      23    12  0.122604  0.122604     109.987      -2.108      37.044
 387      23    13  0.126482  0.126482     104.924      -2.894      39.234
 388      23    14  0.118338  0.118338     108.522      -2.548      41.637
 389      23    15  0.119156  0.119156     106.049      -2.866      41.480