Created by: LAMMPS for multicomponent system, Feb 2019

    2700  atoms
    2700  bonds
    3900  angles
    4200  dihedrals
       0  impropers

       9  atom types
       9  bond types
      13  angle types
      14  dihedral types
       0  improper types

    -2.65    94.54  xlo xhi
    -2.65    94.54  ylo yhi
    -2.65    94.54  zlo zhi

 Atoms

   1       1     1  0.040372  0.040372      51.172      71.222      64.250
   2       1     2 -0.138339 -0.138339      50.628      69.720      66.276
   3       1     3 -0.138339 -0.138339      51.730      70.539      66.675
   4       1     4 -0.134165 -0.134165      50.215      69.975      64.987
   5       1     5 -0.134165 -0.134165      52.137      71.404      65.682
   6       1     6  0.123304  0.123304      50.159      68.971      66.917
   7       1     7  0.123304  0.123304      52.205      70.492      67.657
   8       1     8  0.129014  0.129014      49.408      69.507      64.426
   9       1     9  0.129014  0.129014      52.942      72.135      65.705
  10       2     1  0.040372  0.040372      74.134      88.815       6.959
  11       2     2 -0.138339 -0.138339      73.838      88.026       4.520
  12       2     3 -0.138339 -0.138339      74.269      89.388       4.446
  13       2     4 -0.134165 -0.134165      73.718      87.576       5.816
  14       2     5 -0.134165 -0.134165      74.470      89.949       5.688
  15       2     6  0.123304  0.123304      73.624      87.404       3.649
  16       2     7  0.123304  0.123304      74.425      89.931       3.512
  17       2     8  0.129014  0.129014      73.412      86.593       6.170
  18       2     9  0.129014  0.129014      74.795      90.959       5.933
  19       3     1  0.040372  0.040372      34.347       1.647      41.168
  20       3     2 -0.138339 -0.138339      34.796       2.651      43.502
  21       3     3 -0.138339 -0.138339      34.690       1.238      43.693
  22       3     4 -0.134165 -0.134165      34.632       3.024      42.186
  23       3     5 -0.134165 -0.134165      34.447       0.560      42.519
  24       3     6  0.123304  0.123304      34.986       3.365      44.306
  25       3     7  0.123304  0.123304      34.788       0.741      44.660
  26       3     8  0.129014  0.129014      34.662       4.022      41.753
  27       3     9  0.129014  0.129014      34.321      -0.510      42.364
  28       4     1  0.040372  0.040372      93.395      87.692      76.048
  29       4     2 -0.138339 -0.138339      92.809      87.591      73.537
  30       4     3 -0.138339 -0.138339      94.223      87.398      73.621
  31       4     4 -0.134165 -0.134165      92.221      87.764      74.771
  32       4     5 -0.134165 -0.134165      94.687      87.429      74.918
  33       4     6  0.123304  0.123304      92.247      87.601      72.601
  34       4     7  0.123304  0.123304      94.873      87.244      72.758
  35       4     8  0.129014  0.129014      91.172      87.929      75.008
  36       4     9  0.129014  0.129014      95.708      87.312      75.279
  37       5     1  0.040372  0.040372      16.575      20.537      43.940
  38       5     2 -0.138339 -0.138339      18.495      18.923      43.332
  39       5     3 -0.138339 -0.138339      19.107      20.039      43.983
  40       5     4 -0.134165 -0.134165      17.126      19.049      43.234
  41       5     5 -0.134165 -0.134165      18.194      20.996      44.370
  42       5     6  0.123304  0.123304      19.043      18.060      42.951
  43       5     7  0.123304  0.123304      20.180      20.132      44.160
  44       5     8  0.129014  0.129014      16.409      18.361      42.792
  45       5     9  0.129014  0.129014      18.372      21.940      44.880
  46       6     1  0.040372  0.040372       8.209      94.930       7.544
  47       6     2 -0.138339 -0.138339       7.051      94.215       5.351
  48       6     3 -0.138339 -0.138339       8.290      93.502       5.396
  49       6     4 -0.134165 -0.134165       6.867      95.029       6.446
  50       6     5 -0.134165 -0.134165       9.026      93.786       6.525
  51       6     6  0.123304  0.123304       6.324      94.129       4.541
  52       6     7  0.123304  0.123304       8.624      92.805       4.625
  53       6     8  0.129014  0.129014       6.025      95.681       6.676
  54       6     9  0.129014  0.129014       9.998      93.395       6.820
  55       7     1  0.040372  0.040372      90.350      20.809      10.345
  56       7     2 -0.138339 -0.138339      91.183      23.205       9.868
  57       7     3 -0.138339 -0.138339      92.354      22.419      10.109
  58       7     4 -0.134165 -0.134165      90.022      22.470       9.961
  59       7     5 -0.134165 -0.134165      92.062      21.101      10.382
  60       7     6  0.123304  0.123304      91.199      24.271       9.634
  61       7     7  0.123304  0.123304      93.372      22.812      10.082
  62       7     8  0.129014  0.129014      88.994      22.803       9.828
  63       7     9  0.129014  0.129014      92.746      20.283      10.602
  64       8     1  0.040372  0.040372      23.884      81.154      41.266
  65       8     2 -0.138339 -0.138339      22.705      80.297      39.136
  66       8     3 -0.138339 -0.138339      22.966      81.685      38.913
  67       8     4 -0.134165 -0.134165      23.145      79.865      40.368
  68       8     5 -0.134165 -0.134165      23.600      82.285      39.979
  69       8     6  0.123304  0.123304      22.212      79.643      38.415
  70       8     7  0.123304  0.123304      22.697      82.220      38.000
  71       8     8  0.129014  0.129014      23.080      78.869      40.803
  72       8     9  0.129014  0.129014      23.918      83.320      40.087
  73       9     1  0.040372  0.040372      29.636      42.231      92.221
  74       9     2 -0.138339 -0.138339      29.201      41.985      94.752
  75       9     3 -0.138339 -0.138339      30.238      42.960      94.622
  76       9     4 -0.134165 -0.134165      28.773      41.498      93.537
  77       9     5 -0.134165 -0.134165      30.582      43.199      93.310
  78       9     6  0.123304  0.123304      28.786      41.655      95.707
  79       9     7  0.123304  0.123304      30.712      43.467      95.465
  80       9     8  0.129014  0.129014      28.004      40.755      93.334
  81       9     9  0.129014  0.129014      31.331      43.883      92.916
  82      10     1  0.040372  0.040372      10.084      56.021      16.226
  83      10     2 -0.138339 -0.138339      11.901      57.852      16.303
  84      10     3 -0.138339 -0.138339      10.673      58.497      16.651
  85      10     4 -0.134165 -0.134165      11.740      56.509      16.044
  86      10     5 -0.134165 -0.134165       9.600      57.633      16.651
  87      10     6  0.123304  0.123304      12.865      58.360      16.245
  88      10     7  0.123304  0.123304      10.586      59.558      16.892
  89      10     8  0.129014  0.129014      12.493      55.776      15.758
  90      10     9  0.129014  0.129014       8.556      57.845      16.876
  91      11     1  0.040372  0.040372      33.521      57.665      37.853
  92      11     2 -0.138339 -0.138339      34.635      57.615      40.180
  93      11     3 -0.138339 -0.138339      34.823      58.941      39.679
  94      11     4 -0.134165 -0.134165      33.946      56.807      39.302
  95      11     5 -0.134165 -0.134165      34.274      59.119      38.428
  96      11     6  0.123304  0.123304      34.995      57.270      41.151
  97      11     7  0.123304  0.123304      35.344      59.732      40.221
  98      11     8  0.129014  0.129014      33.663      55.763      39.417
  99      11     9  0.129014  0.129014      34.266      60.015      37.810
 100      12     1  0.040372  0.040372      87.734      86.763      45.058
 101      12     2 -0.138339 -0.138339      88.375      87.123      47.532
 102      12     3 -0.138339 -0.138339      88.778      85.790      47.208
 103      12     4 -0.134165 -0.134165      87.793      87.776      46.467
 104      12     5 -0.134165 -0.134165      88.496      85.451      45.903
 105      12     6  0.123304  0.123304      88.509      87.583      48.513
 106      12     7  0.123304  0.123304      89.258      85.108      47.912
 107      12     8  0.129014  0.129014      87.395      88.788      46.424
 108      12     9  0.129014  0.129014      88.689      84.513      45.387
 109      13     1  0.040372  0.040372      90.956      46.650      70.775
 110      13     2 -0.138339 -0.138339      92.372      47.341      72.820
 111      13     3 -0.138339 -0.138339      91.038      47.774      73.098
 112      13     4 -0.134165 -0.134165      92.485      46.715      71.598
 113      13     5 -0.134165 -0.134165      90.159      47.471      72.082
 114      13     6  0.123304  0.123304      93.217      47.485      73.497
 115      13     7  0.123304  0.123304      90.739      48.290      74.012
 116      13     8  0.129014  0.129014      93.370      46.289      71.130
 117      13     9  0.129014  0.129014      89.092      47.678      72.020
 118      14     1  0.040372  0.040372      77.887      38.970      77.265
 119      14     2 -0.138339 -0.138339      75.519      38.581      78.215
 120      14     3 -0.138339 -0.138339      76.284      39.152      79.280
 121      14     4 -0.134165 -0.134165      76.252      38.421      77.060
 122      14     5 -0.134165 -0.134165      77.586      39.417      78.916
 123      14     6  0.123304  0.123304      74.468      38.299      78.300
 124      14     7  0.123304  0.123304      75.888      39.359      80.276
 125      14     8  0.129014  0.129014      75.932      38.015      76.102
 126      14     9  0.129014  0.129014      78.386      39.847      79.516
 127      15     1  0.040372  0.040372      34.670      78.354      81.861
 128      15     2 -0.138339 -0.138339      34.829      75.864      82.521
 129      15     3 -0.138339 -0.138339      35.451      76.595      83.581
 130      15     4 -0.134165 -0.134165      34.357      76.681      81.517
 131      15     5 -0.134165 -0.134165      35.442      77.956      83.364
 132      15     6  0.123304  0.123304      34.733      74.777      82.501
 133      15     7  0.123304  0.123304      35.888      76.135      84.468
 134      15     8  0.129014  0.129014      33.845      76.403      80.597
 135      15     9  0.129014  0.129014      35.841      78.748      83.996
 136      16     1  0.040372  0.040372      89.278      36.671       1.226
 137      16     2 -0.138339 -0.138339      90.417      38.893       1.878
 138      16     3 -0.138339 -0.138339      91.445      38.069       1.322
 139      16     4 -0.134165 -0.134165      89.188      38.272       1.894
 140      16     5 -0.134165 -0.134165      90.980      36.835       0.924
 141      16     6  0.123304  0.123304      90.579      39.906       2.253
 142      16     7  0.123304  0.123304      92.488      38.376       1.219
 143      16     8  0.129014  0.129014      88.236      38.656       2.256
 144      16     9  0.129014  0.129014      91.532      36.013       0.472
 145      17     1  0.040372  0.040372      25.506      60.388       1.208
 146      17     2 -0.138339 -0.138339      25.328      60.870       3.737
 147      17     3 -0.138339 -0.138339      26.526      60.110       3.562
 148      17     4 -0.134165 -0.134165      24.666      61.100       2.551
 149      17     5 -0.134165 -0.134165      26.755      59.774       2.246
 150      17     6  0.123304  0.123304      24.969      61.234       4.702
 151      17     7  0.123304  0.123304      27.193      59.821       4.377
 152      17     8  0.129014  0.129014      23.739      61.644       2.384
 153      17     9  0.129014  0.129014      27.581      59.205       1.823
 154      18     1  0.040372  0.040372      20.356      25.697      60.304
 155      18     2 -0.138339 -0.138339      21.811      27.790      59.898
 156      18     3 -0.138339 -0.138339      22.554      26.684      59.379
 157      18     4 -0.134165 -0.134165      20.599      27.412      60.432
 158      18     5 -0.134165 -0.134165      21.895      25.484      59.528
 159      18     6  0.123304  0.123304      22.158      28.825      59.877
 160      18     7  0.123304  0.123304      23.538      26.771      58.914
 161      18     8  0.129014  0.129014      19.834      28.035      60.892
 162      18     9  0.129014  0.129014      22.217      24.488      59.229
 163      19     1  0.040372  0.040372      82.849      56.034      62.676
 164      19     2 -0.138339 -0.138339      81.252      58.000      62.183
 165      19     3 -0.138339 -0.138339      82.519      58.587      62.493
 166      19     4 -0.134165 -0.134165      81.275      56.624      62.241
 167      19     5 -0.134165 -0.134165      83.483      57.647      62.783
 168      19     6  0.123304  0.123304      80.358      58.573      61.926
 169      19     7  0.123304  0.123304      82.710      59.662      62.503
 170      19     8  0.129014  0.129014      80.465      55.922      62.055
 171      19     9  0.129014  0.129014      84.526      57.803      63.051
 172      20     1  0.040372  0.040372      50.086      51.592      56.365
 173      20     2 -0.138339 -0.138339      49.940      50.991      53.859
 174      20     3 -0.138339 -0.138339      48.939      50.208      54.514
 175      20     4 -0.134165 -0.134165      50.645      51.791      54.733
 176      20     5 -0.134165 -0.134165      48.899      50.425      55.873
 177      20     6  0.123304  0.123304      50.134      50.965      52.785
 178      20     7  0.123304  0.123304      48.274      49.511      54.000
 179      20     8  0.129014  0.129014      51.456      52.484      54.518
 180      20     9  0.129014  0.129014      48.244      49.971      56.616
 181      21     1  0.040372  0.040372      84.755      46.096      83.503
 182      21     2 -0.138339 -0.138339      83.568      48.003      82.231
 183      21     3 -0.138339 -0.138339      84.719      48.591      82.843
 184      21     4 -0.134165 -0.134165      83.453      46.656      82.499
 185      21     5 -0.134165 -0.134165      85.460      47.681      83.566
 186      21     6  0.123304  0.123304      82.853      48.553      81.618
 187      21     7  0.123304  0.123304      84.990      49.644      82.753
 188      21     8  0.129014  0.129014      82.685      45.960      82.169
 189      21     9  0.129014  0.129014      86.376      47.845      84.131
 190      22     1  0.040372  0.040372      72.351      11.431      76.737
 191      22     2 -0.138339 -0.138339      72.798      11.489      79.279
 192      22     3 -0.138339 -0.138339      73.221      10.198      78.831
 193      22     4 -0.134165 -0.134165      72.302      12.269      78.258
 194      22     5 -0.134165 -0.134165      73.041      10.020      77.477
 195      22     6  0.123304  0.123304      72.856      11.827      80.315
 196      22     7  0.123304  0.123304      73.643       9.432      79.484
 197      22     8  0.129014  0.129014      71.912      13.284      78.305
 198      22     9  0.129014  0.129014      73.271       9.146      76.869
 199      23     1  0.040372  0.040372      91.476      -2.458      31.101
 200      23     2 -0.138339 -0.138339      90.671      -2.696      33.541
 201      23     3 -0.138339 -0.138339      92.087      -2.512      33.608
 202      23     4 -0.134165 -0.134165      90.194      -2.689      32.249
 203      23     5 -0.134165 -0.134165      92.664      -2.370      32.365
 204      23     6  0.123304  0.123304      90.029      -2.827      34.414
 205      23     7  0.123304  0.123304      92.659      -2.487      34.537
 206      23     8  0.129014  0.129014      89.169      -2.806      31.901
 207      23     9  0.129014  0.129014      93.712      -2.218      32.114
 208      24     1  0.040372  0.040372      33.155      44.637      31.090
 209      24     2 -0.138339 -0.138339      32.864      47.089      31.841
 210      24     3 -0.138339 -0.138339      33.862      46.528      32.698
 211      24     4 -0.134165 -0.134165      32.387      46.185      30.918
 212      24     5 -0.134165 -0.134165      34.125      45.206      32.413
 213      24     6  0.123304  0.123304      32.513      48.121      31.903
 214      24     7  0.123304  0.123304      34.365      47.078      33.495
 215      24     8  0.129014  0.129014      31.632      46.333      30.148
 216      24     9  0.129014  0.129014      34.830      44.533      32.898
 217      25     1  0.040372  0.040372      20.355      67.138      82.011
 218      25     2 -0.138339 -0.138339      19.769      65.214      83.628
 219      25     3 -0.138339 -0.138339      19.175      64.872      82.373
 220      25     4 -0.134165 -0.134165      20.442      66.415      83.587
 221      25     5 -0.134165 -0.134165      19.406      65.819      81.399
 222      25     6  0.123304  0.123304      19.701      64.597      84.526
 223      25     7  0.123304  0.123304      18.598      63.962      82.196
 224      25     8  0.129014  0.129014      20.984      66.919      84.386
 225      25     9  0.129014  0.129014      19.078      65.823      80.361
 226      26     1  0.040372  0.040372      80.949      65.413      57.226
 227      26     2 -0.138339 -0.138339      78.926      64.929      58.754
 228      26     3 -0.138339 -0.138339      78.926      66.342      58.532
 229      26     4 -0.134165 -0.134165      79.963      64.290      58.111
 230      26     5 -0.134165 -0.134165      79.963      66.753      57.724
 231      26     6  0.123304  0.123304      78.189      64.405      59.365
 232      26     7  0.123304  0.123304      78.188      67.028      58.953
 233      26     8  0.129014  0.129014      80.208      63.230      58.102
 234      26     9  0.129014  0.129014      80.208      67.760      57.390
 235      27     1  0.040372  0.040372      28.392      75.174      19.587
 236      27     2 -0.138339 -0.138339      29.606      75.346      17.316
 237      27     3 -0.138339 -0.138339      29.256      73.968      17.475
 238      27     4 -0.134165 -0.134165      29.204      76.123      18.381
 239      27     5 -0.134165 -0.134165      28.594      73.721      18.658
 240      27     6  0.123304  0.123304      30.134      75.747      16.450
 241      27     7  0.123304  0.123304      29.485      73.190      16.745
 242      27     8  0.129014  0.129014      29.335      77.193      18.530
 243      27     9  0.129014  0.129014      28.213      72.776      19.039
 244      28     1  0.040372  0.040372      46.247      31.911      46.910
 245      28     2 -0.138339 -0.138339      44.786      29.795      46.695
 246      28     3 -0.138339 -0.138339      44.690      30.472      45.439
 247      28     4 -0.134165 -0.134165      45.594      30.455      47.594
 248      28     5 -0.134165 -0.134165      45.427      31.635      45.404
 249      28     6  0.123304  0.123304      44.277      28.857      46.925
 250      28     7  0.123304  0.123304      44.099      30.115      44.594
 251      28     8  0.129014  0.129014      45.847      30.174      48.615
 252      28     9  0.129014  0.129014      45.539      32.346      44.588
 253      29     1  0.040372  0.040372      22.937      80.266      64.820
 254      29     2 -0.138339 -0.138339      21.151      81.086      66.493
 255      29     3 -0.138339 -0.138339      22.224      80.567      67.282
 256      29     4 -0.134165 -0.134165      21.391      80.991      65.140
 257      29     5 -0.134165 -0.134165      23.263      80.086      66.516
 258      29     6  0.123304  0.123304      20.236      81.512      66.908
 259      29     7  0.123304  0.123304      22.229      80.549      68.374
 260      29     8  0.129014  0.129014      20.757      81.302      64.312
 261      29     9  0.129014  0.129014      24.200      79.638      66.844
 262      30     1  0.040372  0.040372      46.982      22.383       0.860
 263      30     2 -0.138339 -0.138339      45.272      24.311       1.008
 264      30     3 -0.138339 -0.138339      44.910      23.548      -0.146
 265      30     4 -0.134165 -0.134165      46.375      23.803       1.657
 266      30     5 -0.134165 -0.134165      45.745      22.472      -0.355
 267      30     6  0.123304  0.123304      44.737      25.201       1.346
 268      30     7  0.123304  0.123304      44.066      23.784      -0.797
 269      30     8  0.129014  0.129014      46.869      24.174       2.553
 270      30     9  0.129014  0.129014      45.709      21.727      -1.148
 271      31     1  0.040372  0.040372      57.740      60.745      28.113
 272      31     2 -0.138339 -0.138339      58.813      58.401      28.240
 273      31     3 -0.138339 -0.138339      58.491      58.763      29.586
 274      31     4 -0.134165 -0.134165      58.466      59.375      27.330
 275      31     5 -0.134165 -0.134165      57.905      60.006      29.676
 276      31     6  0.123304  0.123304      59.283      57.457      27.955
 277      31     7  0.123304  0.123304      58.685      58.130      30.453
 278      31     8  0.129014  0.129014      58.591      59.372      26.249
 279      31     9  0.129014  0.129014      57.559      60.533      30.564
 280      32     1  0.040372  0.040372      89.061       5.331      77.328
 281      32     2 -0.138339 -0.138339      88.517       6.245      74.976
 282      32     3 -0.138339 -0.138339      88.610       4.825      74.837
 283      32     4 -0.134165 -0.134165      88.738       6.669      76.269
 284      32     5 -0.134165 -0.134165      88.900       4.193      76.026
 285      32     6  0.123304  0.123304      88.296       6.928      74.154
 286      32     7  0.123304  0.123304      88.468       4.291      73.896
 287      32     8  0.129014  0.129014      88.730       7.683      76.663
 288      32     9  0.129014  0.129014      89.029       3.129      76.217
 289      33     1  0.040372  0.040372      23.179       3.710      20.265
 290      33     2 -0.138339 -0.138339      22.054       3.534      22.581
 291      33     3 -0.138339 -0.138339      23.462       3.580      22.827
 292      33     4 -0.134165 -0.134165      21.747       3.594      21.240
 293      33     5 -0.134165 -0.134165      24.201       3.675      21.669
 294      33     6  0.123304  0.123304      21.297       3.458      23.364
 295      33     7  0.123304  0.123304      23.911       3.544      23.822
 296      33     8  0.129014  0.129014      20.767       3.578      20.764
 297      33     9  0.129014  0.129014      25.282       3.727      21.554
 298      34     1  0.040372  0.040372      48.784      28.913      66.869
 299      34     2 -0.138339 -0.138339      49.024      26.786      68.310
 300      34     3 -0.138339 -0.138339      50.196      26.845      67.493
 301      34     4 -0.134165 -0.134165      48.165      27.838      68.085
 302      34     5 -0.134165 -0.134165      50.208      27.942      66.660
 303      34     6  0.123304  0.123304      48.823      25.996      69.037
 304      34     7  0.123304  0.123304      50.999      26.107      67.520
 305      34     8  0.129014  0.129014      47.207      28.049      68.557
 306      34     9  0.129014  0.129014      50.965      28.239      65.937
 307      35     1  0.040372  0.040372      21.824      39.605      23.909
 308      35     2 -0.138339 -0.138339      20.788      39.637      26.273
 309      35     3 -0.138339 -0.138339      21.920      40.509      26.325
 310      35     4 -0.134165 -0.134165      20.608      39.072      25.029
 311      35     5 -0.134165 -0.134165      22.582      40.593      25.120
 312      35     6  0.123304  0.123304      20.132      39.433      27.122
 313      35     7  0.123304  0.123304      22.233      41.053      27.218
 314      35     8  0.129014  0.129014      19.837      38.377      24.702
 315      35     9  0.129014  0.129014      23.467      41.175      24.869
 316      36     1  0.040372  0.040372      92.940      39.212      27.317
 317      36     2 -0.138339 -0.138339      91.934      39.584      29.665
 318      36     3 -0.138339 -0.138339      92.869      38.511      29.800
 319      36     4 -0.134165 -0.134165      91.863      40.068      28.377
 320      36     5 -0.134165 -0.134165      93.492      38.195      28.613
 321      36     6  0.123304  0.123304      91.338      39.985      30.487
 322      36     7  0.123304  0.123304      93.073      37.991      30.738
 323      36     8  0.129014  0.129014      91.244      40.874      27.986
 324      36     9  0.129014  0.129014      94.240      37.429      28.419
 325      37     1  0.040372  0.040372      83.634      79.489      40.015
 326      37     2 -0.138339 -0.138339      85.774      80.089      41.328
 327      37     3 -0.138339 -0.138339      85.763      80.939      40.178
 328      37     4 -0.134165 -0.134165      84.684      79.247      41.377
 329      37     5 -0.134165 -0.134165      84.666      80.730      39.372
 330      37     6  0.123304  0.123304      86.556      80.098      42.089
 331      37     7  0.123304  0.123304      86.536      81.677      39.955
 332      37     8  0.129014  0.129014      84.434      78.501      42.129
 333      37     9  0.129014  0.129014      84.400      81.227      38.441
 334      38     1  0.040372  0.040372      35.914       9.139       3.847
 335      38     2 -0.138339 -0.138339      37.120       8.116       5.886
 336      38     3 -0.138339 -0.138339      37.124       7.104       4.875
 337      38     4 -0.134165 -0.134165      36.499       9.275       5.476
 338      38     5 -0.134165 -0.134165      36.506       7.512       3.714
 339      38     6  0.123304  0.123304      37.559       7.992       6.878
 340      38     7  0.123304  0.123304      37.566       6.114       5.001
 341      38     8  0.129014  0.129014      36.350      10.200       6.030
 342      38     9  0.129014  0.129014      36.362       6.956       2.789
 343      39     1  0.040372  0.040372       9.212      20.046      66.982
 344      39     2 -0.138339 -0.138339      10.542      22.258      67.006
 345      39     3 -0.138339 -0.138339      11.481      21.228      67.325
 346      39     4 -0.134165 -0.134165       9.271      21.772      66.794
 347      39     5 -0.134165 -0.134165      10.908      19.975      67.350
 348      39     6  0.123304  0.123304      10.795      23.318      66.936
 349      39     7  0.123304  0.123304      12.539      21.405      67.528
 350      39     8  0.129014  0.129014       8.366      22.320      66.538
 351      39     9  0.129014  0.129014      11.377      19.016      67.562
 352      40     1  0.040372  0.040372       8.355      61.901      27.864
 353      40     2 -0.138339 -0.138339       7.880      61.833      25.328
 354      40     3 -0.138339 -0.138339       9.259      62.186      25.463
 355      40     4 -0.134165 -0.134165       7.257      61.647      26.542
 356      40     5 -0.134165 -0.134165       9.661      62.262      26.779
 357      40     6  0.123304  0.123304       7.367      61.722      24.371
 358      40     7  0.123304  0.123304       9.928      62.376      24.622
 359      40     8  0.129014  0.129014       6.222      61.376      26.742
 360      40     9  0.129014  0.129014      10.644      62.507      27.176
 361      41     1  0.040372  0.040372      33.929      44.603      76.437
 362      41     2 -0.138339 -0.138339      31.543      44.815      77.397
 363      41     3 -0.138339 -0.138339      31.391      44.703      75.980
 364      41     4 -0.134165 -0.134165      32.861      44.778      77.795
 365      41     5 -0.134165 -0.134165      32.597      44.582      75.324
 366      41     6  0.123304  0.123304      30.711      44.920      78.096
 367      41     7  0.123304  0.123304      30.429      44.711      75.464
 368      41     8  0.129014  0.129014      33.270      44.841      78.802
 369      41     9  0.129014  0.129014      32.784      44.481      74.257
 370      42     1  0.040372  0.040372      74.554      20.561      44.721
 371      42     2 -0.138339 -0.138339      72.069      19.920      45.002
 372      42     3 -0.138339 -0.138339      72.818      18.913      45.688
 373      42     4 -0.134165 -0.134165      72.872      20.880      44.426
 374      42     5 -0.134165 -0.134165      74.178      19.125      45.623
 375      42     6  0.123304  0.123304      70.980      19.934      44.935
 376      42     7  0.123304  0.123304      72.370      18.066      46.210
 377      42     8  0.129014  0.129014      72.580      21.755      43.848
 378      42     9  0.129014  0.129014      74.981      18.527      46.050
 379      43     1  0.040372  0.040372      76.628      54.325      29.186
 380      43     2 -0.138339 -0.138339      75.760      54.459      31.613
 381      43     3 -0.138339 -0.138339      75.142      55.540      30.910
 382      43     4 -0.134165 -0.134165      76.594      53.711      30.810
 383      43     5 -0.134165 -0.134165      75.516      55.597      29.586
 384      43     6  0.123304  0.123304      75.596      54.241      32.670
 385      43     7  0.123304  0.123304      74.448      56.249      31.366
 386      43     8  0.129014  0.129014      77.189      52.838      31.073
 387      43     9  0.129014  0.129014      75.206      56.306      28.821
 388      44     1  0.040372  0.040372      67.132      32.436      31.165
 389      44     2 -0.138339 -0.138339      67.397      32.347      33.731