Created by: 2 component lmpfep spherical, Feb 2016

    7511  atoms
    7510  bonds
   14019  angles
   17773  dihedrals
     500  impropers

      41  atom types
      40  bond types
      74  angle types
      94  dihedral types
       2  improper types

  -927.52  1248.42  xlo xhi
  -927.52  1248.42  ylo yhi
  -927.52  1248.42  zlo zhi

 Atoms

   1       1     1 -0.121067 -0.121067      -0.137       2.307       1.052
   2       1     2 -0.024624 -0.024624      -0.943       1.383       0.101
   3       1     3 -0.111880 -0.111880      -0.777      -0.127       0.500
   4       1     4 -0.164041 -0.164041      -2.453       1.694       0.221
   5       1     5  0.059530  0.059530      -0.467       1.602      -1.337
   6       1     6 -0.066702 -0.066702       0.614       2.076      -1.667
   7       1     7 -0.104203 -0.104203      -1.391       1.174      -2.244
   8       1     8 -0.136695 -0.136695      -0.978       1.294      -3.621
   9       1     9 -0.024004 -0.024004       0.486      -0.973       0.127
  10       1    10 -0.120376 -0.120376       1.818      -0.324       0.599
  11       1    11 -0.163055 -0.163055       0.544      -1.301      -1.378
  12       1    12  0.059579  0.059579       0.301      -2.305       0.879
  13       1    13 -0.059654 -0.059654       0.139      -3.404       0.370
  14       1    14 -0.104533 -0.104533       0.339      -2.118       2.234
  15       1    15 -0.136193 -0.136193       0.173      -3.326       3.003
  16       1    16 -0.168384 -0.168384       3.045      -1.236       0.479
  17       1    18  0.068356  0.068356       0.934       2.086       0.946
  18       1    19  0.063110  0.063110      -0.418       2.033       2.085
  19       1    20  0.068195  0.068195      -1.643      -0.671       0.081
  20       1    21  0.071340  0.071340      -0.891      -0.156       1.597
  21       1    22  0.059399  0.059399      -2.776       1.551       1.266
  22       1    23  0.061333  0.061333      -2.679       2.731      -0.068
  23       1    24  0.064158  0.064158      -3.046       1.029      -0.423
  24       1    25  0.067968  0.067968      -1.864       1.039      -4.217
  25       1    26  0.070464  0.070464      -0.636       2.317      -3.837
  26       1    27  0.068590  0.068590      -0.156       0.593      -3.838
  27       1    28  0.067202  0.067202       1.703      -0.006       1.649
  28       1    29  0.067800  0.067800       1.977       0.583      -0.007
  29       1    30  0.067417  0.067417       0.909      -0.433      -1.947
  30       1    31  0.064145  0.064145       1.222      -2.146      -1.564
  31       1    32  0.062956  0.062956      -0.447      -1.590      -1.760
  32       1    33  0.067933  0.067933       0.242      -3.019       4.054
  33       1    34  0.069127  0.069127      -0.804      -3.790       2.795
  34       1    35  0.069411  0.069411       0.963      -4.054       2.757
  35       1    36  0.057441  0.057441       3.948      -0.713       0.832
  36       1    37  0.061601  0.061601       2.933      -2.150       1.086
  37       1    38  0.058936  0.058936       3.227      -1.544      -0.563
  38       1     1 -0.121067 -0.121067      -2.092       4.938       1.504
  39       1     2 -0.024624 -0.024624      -2.898       4.014       0.554
  40       1     3 -0.111880 -0.111880      -2.731       2.505       0.952
  41       1     4 -0.164041 -0.164041      -4.408       4.325       0.673
  42       1     5  0.059530  0.059530      -2.422       4.234      -0.885
  43       1     6 -0.066702 -0.066702      -1.341       4.707      -1.214
  44       1     7 -0.104203 -0.104203      -3.345       3.805      -1.792
  45       1     8 -0.136695 -0.136695      -2.933       3.925      -3.168
  46       1     9 -0.024004 -0.024004      -1.469       1.658       0.579
  47       1    11 -0.163055 -0.163055      -1.411       1.330      -0.926
  48       1    12  0.059579  0.059579      -1.654       0.326       1.332
  49       1    13 -0.059654 -0.059654      -1.815      -0.773       0.823
  50       1    14 -0.104533 -0.104533      -1.616       0.513       2.686
  51       1    15 -0.136193 -0.136193      -1.781      -0.695       3.455
  52       1    18  0.068356  0.068356      -1.021       4.717       1.399
  53       1    19  0.063110  0.063110      -2.372       4.664       2.537
  54       1    20  0.068195  0.068195      -3.597       1.961       0.534
  55       1    21  0.071340  0.071340      -2.845       2.476       2.049
  56       1    22  0.059399  0.059399      -4.731       4.182       1.718
  57       1    23  0.061333  0.061333      -4.634       5.362       0.384
  58       1    24  0.064158  0.064158      -5.000       3.660       0.030
  59       1    25  0.067968  0.067968      -3.818       3.670      -3.765
  60       1    26  0.070464  0.070464      -2.591       4.948      -3.384
  61       1    27  0.068590  0.068590      -2.110       3.225      -3.385
  62       1    30  0.067417  0.067417      -1.046       2.198      -1.494
  63       1    31  0.064145  0.064145      -0.733       0.485      -1.111
  64       1    32  0.062956  0.062956      -2.401       1.041      -1.307
  65       1    33  0.067933  0.067933      -1.713      -0.388       4.507
  66       1    34  0.069127  0.069127      -2.759      -1.158       3.248
  67       1    35  0.069411  0.069411      -0.992      -1.422       3.210
  68       1     1 -0.121067 -0.121067      -4.046       7.570       1.957
  69       1     2 -0.024624 -0.024624      -4.853       6.645       1.006
  70       1     3 -0.111880 -0.111880      -4.686       5.136       1.405
  71       1     4 -0.164041 -0.164041      -6.363       6.956       1.126
  72       1     5  0.059530  0.059530      -4.377       6.865      -0.432
  73       1     6 -0.066702 -0.066702      -3.296       7.339      -0.762
  74       1     7 -0.104203 -0.104203      -5.300       6.437      -1.339
  75       1     8 -0.136695 -0.136695      -4.888       6.556      -2.716
  76       1     9 -0.024004 -0.024004      -3.423       4.290       1.032
  77       1    11 -0.163055 -0.163055      -3.365       3.962      -0.473
  78       1    12  0.059579  0.059579      -3.609       2.957       1.784
  79       1    13 -0.059654 -0.059654      -3.770       1.859       1.275
  80       1    14 -0.104533 -0.104533      -3.571       3.144       3.139
  81       1    15 -0.136193 -0.136193      -3.736       1.936       3.908
  82       1    18  0.068356  0.068356      -2.976       7.348       1.851
  83       1    19  0.063110  0.063110      -4.327       7.295       2.990
  84       1    20  0.068195  0.068195      -5.552       4.592       0.986
  85       1    21  0.071340  0.071340      -4.800       5.107       2.502
  86       1    22  0.059399  0.059399      -6.686       6.813       2.171
  87       1    23  0.061333  0.061333      -6.589       7.993       0.837
  88       1    24  0.064158  0.064158      -6.955       6.291       0.482
  89       1    25  0.067968  0.067968      -5.773       6.302      -3.312
  90       1    26  0.070464  0.070464      -4.546       7.580      -2.932
  91       1    27  0.068590  0.068590      -4.065       5.856      -2.933
  92       1    30  0.067417  0.067417      -3.001       4.829      -1.042
  93       1    31  0.064145  0.064145      -2.688       3.116      -0.659
  94       1    32  0.062956  0.062956      -4.356       3.672      -0.855
  95       1    33  0.067933  0.067933      -3.668       2.244       4.959
  96       1    34  0.069127  0.069127      -4.713       1.473       3.700
  97       1    35  0.069411  0.069411      -2.946       1.209       3.662
  98       1     1 -0.121067 -0.121067      -6.001      10.201       2.409
  99       1     2 -0.024624 -0.024624      -6.807       9.276       1.459
 100       1     3 -0.111880 -0.111880      -6.641       7.767       1.857
 101       1     4 -0.164041 -0.164041      -8.317       9.588       1.578
 102       1     5  0.059530  0.059530      -6.332       9.496       0.020
 103       1     6 -0.066702 -0.066702      -5.250       9.970      -0.309
 104       1     7 -0.104203 -0.104203      -7.255       9.068      -0.887
 105       1     8 -0.136695 -0.136695      -6.842       9.188      -2.263
 106       1     9 -0.024004 -0.024004      -5.378       6.921       1.484
 107       1    11 -0.163055 -0.163055      -5.320       6.593      -0.021
 108       1    12  0.059579  0.059579      -5.564       5.589       2.237
 109       1    13 -0.059654 -0.059654      -5.725       4.490       1.728
 110       1    14 -0.104533 -0.104533      -5.525       5.776       3.591
 111       1    15 -0.136193 -0.136193      -5.691       4.568       4.360
 112       1    18  0.068356  0.068356      -4.930       9.980       2.304
 113       1    19  0.063110  0.063110      -6.282       9.927       3.442
 114       1    20  0.068195  0.068195      -7.507       7.223       1.439
 115       1    21  0.071340  0.071340      -6.755       7.738       2.954
 116       1    22  0.059399  0.059399      -8.640       9.445       2.623
 117       1    23  0.061333  0.061333      -8.543      10.625       1.289
 118       1    24  0.064158  0.064158      -8.910       8.922       0.935
 119       1    25  0.067968  0.067968      -7.728       8.933      -2.859
 120       1    26  0.070464  0.070464      -6.501      10.211      -2.479
 121       1    27  0.068590  0.068590      -6.020       8.487      -2.480
 122       1    30  0.067417  0.067417      -4.956       7.461      -0.589
 123       1    31  0.064145  0.064145      -4.643       5.748      -0.206
 124       1    32  0.062956  0.062956      -6.311       6.303      -0.402
 125       1    33  0.067933  0.067933      -5.622       4.875       5.412
 126       1    34  0.069127  0.069127      -6.668       4.104       4.153
 127       1    35  0.069411  0.069411      -4.901       3.840       4.115
 128       1     1 -0.121067 -0.121067      -7.956      12.832       2.862
 129       1     2 -0.024624 -0.024624      -8.762      11.908       1.911
 130       1     3 -0.111880 -0.111880      -8.596      10.399       2.310
 131       1     4 -0.164041 -0.164041     -10.272      12.219       2.031
 132       1     5  0.059530  0.059530      -8.286      12.128       0.473
 133       1     6 -0.066702 -0.066702      -7.205      12.601       0.143
 134       1     7 -0.104203 -0.104203      -9.209      11.699      -0.434
 135       1     8 -0.136695 -0.136695      -8.797      11.819      -1.811
 136       1     9 -0.024004 -0.024004      -7.333       9.552       1.937
 137       1    11 -0.163055 -0.163055      -7.275       9.224       0.432
 138       1    12  0.059579  0.059579      -7.518       8.220       2.689
 139       1    13 -0.059654 -0.059654      -7.679       7.121       2.180
 140       1    14 -0.104533 -0.104533      -7.480       8.407       4.044
 141       1    15 -0.136193 -0.136193      -7.645       7.199       4.813
 142       1    18  0.068356  0.068356      -6.885      12.611       2.756
 143       1    19  0.063110  0.063110      -8.236      12.558       3.895
 144       1    20  0.068195  0.068195      -9.461       9.855       1.891
 145       1    21  0.071340  0.071340      -8.709      10.370       3.407
 146       1    22  0.059399  0.059399     -10.595      12.076       3.076
 147       1    23  0.061333  0.061333     -10.498      13.256       1.742
 148       1    24  0.064158  0.064158     -10.865      11.554       1.387
 149       1    25  0.067968  0.067968      -9.682      11.564      -2.407
 150       1    26  0.070464  0.070464      -8.455      12.842      -2.027
 151       1    27  0.068590  0.068590      -7.975      11.119      -2.028
 152       1    30  0.067417  0.067417      -6.910      10.092      -0.136
 153       1    31  0.064145  0.064145      -6.597       8.379       0.246
 154       1    32  0.062956  0.062956      -8.266       8.935       0.050
 155       1    33  0.067933  0.067933      -7.577       7.506       5.864
 156       1    34  0.069127  0.069127      -8.623       6.736       4.605
 157       1    35  0.069411  0.069411      -6.856       6.471       4.567
 158       1     1 -0.121067 -0.121067      -9.910      15.463       3.314
 159       1     2 -0.024624 -0.024624     -10.717      14.539       2.364
 160       1     3 -0.111880 -0.111880     -10.550      13.030       2.762
 161       1     4 -0.164041 -0.164041     -12.227      14.850       2.484
 162       1     5  0.059530  0.059530     -10.241      14.759       0.925
 163       1     6 -0.066702 -0.066702      -9.160      15.233       0.596
 164       1     7 -0.104203 -0.104203     -11.164      14.331       0.018
 165       1     8 -0.136695 -0.136695     -10.752      14.450      -1.358
 166       1     9 -0.024004 -0.024004      -9.287      12.184       2.389
 167       1    11 -0.163055 -0.163055      -9.230      11.856       0.884
 168       1    12  0.059579  0.059579      -9.473      10.851       3.142
 169       1    13 -0.059654 -0.059654      -9.634       9.753       2.633
 170       1    14 -0.104533 -0.104533      -9.435      11.038       4.496
 171       1    15 -0.136193 -0.136193      -9.600       9.830       5.265
 172       1    18  0.068356  0.068356      -8.840      15.242       3.209
 173       1    19  0.063110  0.063110     -10.191      15.189       4.347
 174       1    20  0.068195  0.068195     -11.416      12.486       2.344
 175       1    21  0.071340  0.071340     -10.664      13.001       3.859
 176       1    22  0.059399  0.059399     -12.550      14.707       3.528
 177       1    23  0.061333  0.061333     -12.453      15.887       2.194
 178       1    24  0.064158  0.064158     -12.819      14.185       1.840
 179       1    25  0.067968  0.067968     -11.637      14.196      -1.954
 180       1    26  0.070464  0.070464     -10.410      15.474      -1.574
 181       1    27  0.068590  0.068590      -9.929      13.750      -1.575
 182       1    30  0.067417  0.067417      -8.865      12.723       0.316
 183       1    31  0.064145  0.064145      -8.552      11.010       0.699
 184       1    32  0.062956  0.062956     -10.220      11.566       0.503
 185       1    33  0.067933  0.067933      -9.532      10.138       6.317
 186       1    34  0.069127  0.069127     -10.577       9.367       5.058
 187       1    35  0.069411  0.069411      -8.811       9.103       5.020
 188       1     1 -0.121067 -0.121067     -11.865      18.095       3.767
 189       1     2 -0.024624 -0.024624     -12.671      17.170       2.816
 190       1     3 -0.111880 -0.111880     -12.505      15.661       3.215
 191       1     4 -0.164041 -0.164041     -14.181      17.482       2.936
 192       1     5  0.059530  0.059530     -12.196      17.390       1.378
 193       1     6 -0.066702 -0.066702     -11.114      17.864       1.048
 194       1     7 -0.104203 -0.104203     -13.119      16.962       0.471
 195       1     8 -0.136695 -0.136695     -12.706      17.082      -0.906
 196       1     9 -0.024004 -0.024004     -11.242      14.815       2.842
 197       1    11 -0.163055 -0.163055     -11.184      14.487       1.337
 198       1    12  0.059579  0.059579     -11.428      13.483       3.594
 199       1    13 -0.059654 -0.059654     -11.589      12.384       3.085
 200       1    14 -0.104533 -0.104533     -11.389      13.670       4.949
 201       1    15 -0.136193 -0.136193     -11.555      12.461       5.718
 202       1    18  0.068356  0.068356     -10.794      17.874       3.661
 203       1    19  0.063110  0.063110     -12.146      17.820       4.800
 204       1    20  0.068195  0.068195     -13.371      15.117       2.797
 205       1    21  0.071340  0.071340     -12.619      15.632       4.312
 206       1    22  0.059399  0.059399     -14.504      17.339       3.981
 207       1    23  0.061333  0.061333     -14.408      18.519       2.647
 208       1    24  0.064158  0.064158     -14.774      16.816       2.293
 209       1    25  0.067968  0.067968     -13.592      16.827      -1.502
 210       1    26  0.070464  0.070464     -12.365      18.105      -1.122
 211       1    27  0.068590  0.068590     -11.884      16.381      -1.123
 212       1    30  0.067417  0.067417     -10.820      15.355       0.769
 213       1    31  0.064145  0.064145     -10.507      13.642       1.152
 214       1    32  0.062956  0.062956     -12.175      14.197       0.955
 215       1    33  0.067933  0.067933     -11.486      12.769       6.769
 216       1    34  0.069127  0.069127     -12.532      11.998       5.510
 217       1    35  0.069411  0.069411     -10.765      11.734       5.472
 218       1     1 -0.121067 -0.121067     -13.820      20.726       4.219
 219       1     2 -0.024624 -0.024624     -14.626      19.802       3.269
 220       1     3 -0.111880 -0.111880     -14.460      18.293       3.667
 221       1     4 -0.164041 -0.164041     -16.136      20.113       3.389
 222       1     5  0.059530  0.059530     -14.150      20.022       1.831
 223       1     6 -0.066702 -0.066702     -13.069      20.495       1.501
 224       1     7 -0.104203 -0.104203     -15.074      19.593       0.924
 225       1     8 -0.136695 -0.136695     -14.661      19.713      -0.453
 226       1     9 -0.024004 -0.024004     -13.197      17.446       3.295
 227       1    11 -0.163055 -0.163055     -13.139      17.118       1.790
 228       1    12  0.059579  0.059579     -13.382      16.114       4.047
 229       1    13 -0.059654 -0.059654     -13.543      15.015       3.538
 230       1    14 -0.104533 -0.104533     -13.344      16.301       5.401
 231       1    15 -0.136193 -0.136193     -13.509      15.093       6.170
 232       1    18  0.068356  0.068356     -12.749      20.505       4.114
 233       1    19  0.063110  0.063110     -14.101      20.452       5.253
 234       1    20  0.068195  0.068195     -15.325      17.749       3.249
 235       1    21  0.071340  0.071340     -14.574      18.264       4.765
 236       1    22  0.059399  0.059399     -16.459      19.970       4.433
 237       1    23  0.061333  0.061333     -16.362      21.150       3.099
 238       1    24  0.064158  0.064158     -16.729      19.448       2.745
 239       1    25  0.067968  0.067968     -15.547      19.458      -1.049
 240       1    26  0.070464  0.070464     -14.319      20.736      -0.669
 241       1    27  0.068590  0.068590     -13.839      19.012      -0.670
 242       1    30  0.067417  0.067417     -12.774      17.986       1.221
 243       1    31  0.064145  0.064145     -12.461      16.273       1.604
 244       1    32  0.062956  0.062956     -14.130      16.829       1.408
 245       1    33  0.067933  0.067933     -13.441      15.400       7.222
 246       1    34  0.069127  0.069127     -14.487      14.630       5.963
 247       1    35  0.069411  0.069411     -12.720      14.365       5.925
 248       1     1 -0.121067 -0.121067     -15.775      23.357       4.672
 249       1     2 -0.024624 -0.024624     -16.581      22.433       3.721
 250       1     3 -0.111880 -0.111880     -16.414      20.924       4.120
 251       1     4 -0.164041 -0.164041     -18.091      22.744       3.841
 252       1     5  0.059530  0.059530     -16.105      22.653       2.283
 253       1     6 -0.066702 -0.066702     -15.024      23.126       1.953
 254       1     7 -0.104203 -0.104203     -17.028      22.224       1.376
 255       1     8 -0.136695 -0.136695     -16.616      22.344      -0.001
 256       1     9 -0.024004 -0.024004     -15.151      20.077       3.747
 257       1    11 -0.163055 -0.163055     -15.094      19.750       2.242
 258       1    12  0.059579  0.059579     -15.337      18.745       4.499
 259       1    13 -0.059654 -0.059654     -15.498      17.647       3.990
 260       1    14 -0.104533 -0.104533     -15.299      18.932       5.854
 261       1    15 -0.136193 -0.136193     -15.464      17.724       6.623
 262       1    18  0.068356  0.068356     -14.704      23.136       4.566
 263       1    19  0.063110  0.063110     -16.055      23.083       5.705
 264       1    20  0.068195  0.068195     -17.280      20.380       3.702
 265       1    21  0.071340  0.071340     -16.528      20.895       5.217
 266       1    22  0.059399  0.059399     -18.414      22.601       4.886
 267       1    23  0.061333  0.061333     -18.317      23.781       3.552
 268       1    24  0.064158  0.064158     -18.683      22.079       3.198
 269       1    25  0.067968  0.067968     -17.501      22.090      -0.597
 270       1    26  0.070464  0.070464     -16.274      23.368      -0.216
 271       1    27  0.068590  0.068590     -15.793      21.644      -0.218
 272       1    30  0.067417  0.067417     -14.729      20.617       1.674
 273       1    31  0.064145  0.064145     -14.416      18.904       2.057
 274       1    32  0.062956  0.062956     -16.084      19.460       1.860
 275       1    33  0.067933  0.067933     -15.396      18.032       7.674
 276       1    34  0.069127  0.069127     -16.441      17.261       6.415
 277       1    35  0.069411  0.069411     -14.675      16.997       6.377
 278       1     1 -0.121067 -0.121067     -17.729      25.989       5.124
 279       1     2 -0.024624 -0.024624     -18.536      25.064       4.174
 280       1     3 -0.111880 -0.111880     -18.369      23.555       4.572
 281       1     4 -0.164041 -0.164041     -20.046      25.375       4.294
 282       1     5  0.059530  0.059530     -18.060      25.284       2.736
 283       1     6 -0.066702 -0.066702     -16.978      25.758       2.406
 284       1     7 -0.104203 -0.104203     -18.983      24.856       1.829
 285       1     8 -0.136695 -0.136695     -18.570      24.976       0.452
 286       1     9 -0.024004 -0.024004     -17.106      22.709       4.200
 287       1    11 -0.163055 -0.163055     -17.048      22.381       2.695
 288       1    12  0.059579  0.059579     -17.292      21.376       4.952
 289       1    13 -0.059654 -0.059654     -17.453      20.278       4.443
 290       1    14 -0.104533 -0.104533     -17.254      21.563       6.306
 291       1    15 -0.136193 -0.136193     -17.419      20.355       7.075
 292       1    18  0.068356  0.068356     -16.659      25.767       5.019
 293       1    19  0.063110  0.063110     -18.010      25.714       6.158
 294       1    20  0.068195  0.068195     -19.235      23.011       4.154
 295       1    21  0.071340  0.071340     -18.483      23.526       5.670
 296       1    22  0.059399  0.059399     -20.369      25.233       5.339
 297       1    23  0.061333  0.061333     -20.272      26.413       4.005
 298       1    24  0.064158  0.064158     -20.638      24.710       3.650
 299       1    25  0.067968  0.067968     -19.456      24.721      -0.144
 300       1    26  0.070464  0.070464     -18.229      25.999       0.236
 301       1    27  0.068590  0.068590     -17.748      24.275       0.235
 302       1    30  0.067417  0.067417     -16.684      23.249       2.126
 303       1    31  0.064145  0.064145     -16.371      21.536       2.509
 304       1    32  0.062956  0.062956     -18.039      22.091       2.313
 305       1    33  0.067933  0.067933     -17.351      20.663       8.127
 306       1    34  0.069127  0.069127     -18.396      19.892       6.868
 307       1    35  0.069411  0.069411     -16.629      19.628       6.830
 308       1     1 -0.121067 -0.121067     -19.684      28.620       5.577
 309       1     2 -0.024624 -0.024624     -20.490      27.696       4.626
 310       1     3 -0.111880 -0.111880     -20.324      26.186       5.025
 311       1     4 -0.164041 -0.164041     -22.000      28.007       4.746
 312       1     5  0.059530  0.059530     -20.014      27.916       3.188
 313       1     6 -0.066702 -0.066702     -18.933      28.389       2.858
 314       1     7 -0.104203 -0.104203     -20.938      27.487       2.281
 315       1     8 -0.136695 -0.136695     -20.525      27.607       0.904
 316       1     9 -0.024004 -0.024004     -19.061      25.340       4.652
 317       1    11 -0.163055 -0.163055     -19.003      25.012       3.147
 318       1    12  0.059579  0.059579     -19.246      24.008       5.405
 319       1    13 -0.059654 -0.059654     -19.408      22.909       4.895
 320       1    14 -0.104533 -0.104533     -19.208      24.195       6.759
 321       1    15 -0.136193 -0.136193     -19.374      22.987       7.528
 322       1    18  0.068356  0.068356     -18.613      28.399       5.471
 323       1    19  0.063110  0.063110     -19.965      28.346       6.610
 324       1    20  0.068195  0.068195     -21.190      25.643       4.607
 325       1    21  0.071340  0.071340     -20.438      26.157       6.122
 326       1    22  0.059399  0.059399     -22.323      27.864       5.791
 327       1    23  0.061333  0.061333     -22.226      29.044       4.457
 328       1    24  0.064158  0.064158     -22.593      27.342       4.103
 329       1    25  0.067968  0.067968     -21.411      27.352       0.308
 330       1    26  0.070464  0.070464     -20.183      28.630       0.689
 331       1    27  0.068590  0.068590     -19.703      26.906       0.687
 332       1    30  0.067417  0.067417     -18.638      25.880       2.579
 333       1    31  0.064145  0.064145     -18.325      24.167       2.962
 334       1    32  0.062956  0.062956     -19.994      24.723       2.765
 335       1    33  0.067933  0.067933     -19.305      23.294       8.579
 336       1    34  0.069127  0.069127     -20.351      22.523       7.320
 337       1    35  0.069411  0.069411     -18.584      22.259       7.283
 338       1     1 -0.121067 -0.121067     -21.639      31.251       6.029
 339       1     2 -0.024624 -0.024624     -22.445      30.327       5.079
 340       1     3 -0.111880 -0.111880     -22.278      28.818       5.477
 341       1     4 -0.164041 -0.164041     -23.955      30.638       5.199
 342       1     5  0.059530  0.059530     -21.969      30.547       3.641
 343       1     6 -0.066702 -0.066702     -20.888      31.020       3.311
 344       1     7 -0.104203 -0.104203     -22.892      30.118       2.734
 345       1     8 -0.136695 -0.136695     -22.480      30.238       1.357
 346       1     9 -0.024004 -0.024004     -21.016      27.971       5.105
 347       1    11 -0.163055 -0.163055     -20.958      27.644       3.600
 348       1    12  0.059579  0.059579     -21.201      26.639       5.857
 349       1    13 -0.059654 -0.059654     -21.362      25.540       5.348
 350       1    14 -0.104533 -0.104533     -21.163      26.826       7.211
 351       1    15 -0.136193 -0.136193     -21.328      25.618       7.980
 352       1    18  0.068356  0.068356     -20.568      31.030       5.924
 353       1    19  0.063110  0.063110     -21.919      30.977       7.063
 354       1    20  0.068195  0.068195     -23.144      28.274       5.059
 355       1    21  0.071340  0.071340     -22.392      28.789       6.575
 356       1    22  0.059399  0.059399     -24.278      30.495       6.244
 357       1    23  0.061333  0.061333     -24.181      31.675       4.910
 358       1    24  0.064158  0.064158     -24.547      29.973       4.555
 359       1    25  0.067968  0.067968     -23.365      29.984       0.761
 360       1    26  0.070464  0.070464     -22.138      31.262       1.141
 361       1    27  0.068590  0.068590     -21.657      29.538       1.140
 362       1    30  0.067417  0.067417     -20.593      28.511       3.031
 363       1    31  0.064145  0.064145     -20.280      26.798       3.414
 364       1    32  0.062956  0.062956     -21.948      27.354       3.218
 365       1    33  0.067933  0.067933     -21.260      25.926       9.032
 366       1    34  0.069127  0.069127     -22.306      25.155       7.773
 367       1    35  0.069411  0.069411     -20.539      24.891       7.735
 368       1     1 -0.121067 -0.121067     -23.593      33.883       6.482
 369       1     2 -0.024624 -0.024624     -24.400      32.958       5.532
 370       1     3 -0.111880 -0.111880     -24.233      31.449       5.930
 371       1     4 -0.164041 -0.164041     -25.910      33.269       5.651
 372       1     5  0.059530  0.059530     -23.924      33.178       4.093
 373       1     6 -0.066702 -0.066702     -22.843      33.652       3.763
 374       1     7 -0.104203 -0.104203     -24.847      32.750       3.186
 375       1     8 -0.136695 -0.136695     -24.435      32.869       1.809
 376       1     9 -0.024004 -0.024004     -22.970      30.603       5.557
 377       1    11 -0.163055 -0.163055     -22.912      30.275       4.052
 378       1    12  0.059579  0.059579     -23.156      29.270       6.310
 379       1    13 -0.059654 -0.059654     -23.317      28.172       5.800
 380       1    14 -0.104533 -0.104533     -23.118      29.457       7.664
 381       1    15 -0.136193 -0.136193     -23.283      28.249       8.433
 382       1    18  0.068356  0.068356     -22.523      33.661       6.376
 383       1    19  0.063110  0.063110     -23.874      33.608       7.515
 384       1    20  0.068195  0.068195     -25.099      30.905       5.512
 385       1    21  0.071340  0.071340     -24.347      31.420       7.027
 386       1    22  0.059399  0.059399     -26.233      33.127       6.696
 387       1    23  0.061333  0.061333     -26.136      34.307       5.362
 388       1    24  0.064158  0.064158     -26.502      32.604       5.008
 389       1    25  0.067968  0.067968     -25.320      32.615       1.213
 390       1    26  0.070464  0.070464     -24.093      33.893       1.594
 391       1    27  0.068590  0.068590     -23.612      32.169       1.593
 392       1    30  0.067417  0.067417     -22.548      31.142       3.484
 393       1    31  0.064145  0.064145     -22.235      29.430       3.867
 394       1    32  0.062956  0.062956     -23.903      29.985       3.670
 395       1    33  0.067933  0.067933     -23.215      28.557       9.484